 Gaussian 09, Revision A.02,
 Gaussian 09:  EM64L-G09RevA.02 11-Jun-2009

 ------------------------------------------------------------
 #HF/6-31G* SCF=tight Test Pop=MK iop(6/33=2) iop(6/42=6) opt
 ------------------------------------------------------------

 ---------------------
 remark line goes here
 ---------------------
 Symbolic Z-matrix:
 Charge =  0 Multiplicity = 1

 SCF Done:  E(RHF) =  -1295.60570057     A.U. after   14 cycles
 SCF Done:  E(RHF) =  -1295.62452072     A.U. after   13 cycles
 SCF Done:  E(RHF) =  -1295.62643857     A.U. after   13 cycles
 SCF Done:  E(RHF) =  -1295.62739579     A.U. after   13 cycles
 SCF Done:  E(RHF) =  -1295.62766523     A.U. after   13 cycles
 SCF Done:  E(RHF) =  -1295.62754821     A.U. after   13 cycles
 SCF Done:  E(RHF) =  -1295.62760095     A.U. after   13 cycles
 SCF Done:  E(RHF) =  -1295.62844804     A.U. after   12 cycles
 SCF Done:  E(RHF) =  -1295.62852512     A.U. after   12 cycles
 SCF Done:  E(RHF) =  -1295.62862683     A.U. after   11 cycles
 SCF Done:  E(RHF) =  -1295.62884209     A.U. after    9 cycles
 SCF Done:  E(RHF) =  -1295.62884254     A.U. after    9 cycles
 SCF Done:  E(RHF) =  -1295.62884281     A.U. after    9 cycles
 SCF Done:  E(RHF) =  -1295.62884301     A.U. after    9 cycles
 SCF Done:  E(RHF) =  -1295.62884315     A.U. after    8 cycles
 SCF Done:  E(RHF) =  -1295.62884321     A.U. after    7 cycles
 SCF Done:  E(RHF) =  -1295.62884323     A.U. after    7 cycles
 SCF Done:  E(RHF) =  -1295.62884324     A.U. after    7 cycles
 SCF Done:  E(RHF) =  -1295.62884326     A.U. after    7 cycles
 SCF Done:  E(RHF) =  -1295.62884327     A.U. after    7 cycles
 Optimization completed.
    -- Stationary point found.

                         Standard orientation:
 ---------------------------------------------------------------------
 Center     Atomic      Atomic             Coordinates (Angstroms)
 Number     Number       Type             X           Y           Z
 ---------------------------------------------------------------------
      1          6           0        7.267033   -2.805416   -0.500718
      2          7           0        6.125736   -1.968786   -0.187316
      3          6           0        6.295171   -0.846895    0.541148
      4          8           0        7.338240   -0.580478    1.077125
      5          6           0        5.070064    0.073992    0.783054
      6          6           0        4.706671   -0.102193    2.265817
      7          6           0        3.856653   -0.233746   -0.120493
      8          6           0        2.648356    0.688117    0.076326
      9          6           0        1.544332    0.468166   -0.973278
     10          6           0        0.940711   -0.915239   -0.953675
     11          6           0       -0.219152   -1.290294   -0.439191
     12          6           0       -1.251933   -0.441154    0.254965
     13          6           0       -2.598756   -0.455501   -0.482480
     14          6           0       -3.650882    0.377597    0.254229
     15          6           0       -5.078893    0.374269   -0.345590
     16          6           0       -5.092564    0.917892   -1.777470
     17          7           0       -5.876656    1.229071    0.544306
     18          6           0       -7.209727    1.459741    0.376689
     19          6           0       -7.765186    2.626476    1.166267
     20          8           0       -7.898331    0.783389   -0.333466
     21          6           0       -5.602610   -1.075287   -0.330882
     22          8           0       -5.502211   -1.772128   -1.302747
     23          7           0       -6.047589   -1.541978    0.857086
     24          6           0       -6.665670   -2.848769    0.938913
     25          7           0        5.520704    1.452368    0.610385
     26          6           0        6.162931    1.856126   -0.520241
     27          6           0        6.875832    3.185232   -0.416820
     28          8           0        6.168321    1.203807   -1.528567
     29          1           0        7.782116   -3.073098    0.409734
     30          1           0        6.911724   -3.706818   -0.982704
     31          1           0        7.967857   -2.301526   -1.157105
     32          1           0        5.357668   -2.004707   -0.814209
     33          1           0        3.944391    0.608174    2.562134
     34          1           0        5.582897    0.044449    2.884938
     35          1           0        4.328855   -1.102383    2.445653
     36          1           0        3.549285   -1.257161    0.073057
     37          1           0        4.170682   -0.171168   -1.155073
     38          1           0        2.973580    1.721156    0.019275
     39          1           0        2.218071    0.542857    1.062526
     40          1           0        1.959461    0.652108   -1.961806
     41          1           0        0.776138    1.218188   -0.823805
     42          1           0        1.539106   -1.683856   -1.417053
     43          1           0       -0.484833   -2.333238   -0.523258
     44          1           0       -1.397788   -0.827948    1.262766
     45          1           0       -0.905013    0.580273    0.367228
     46          1           0       -2.940722   -1.478440   -0.591676
     47          1           0       -2.452390   -0.071907   -1.486196
     48          1           0       -3.717867    0.038325    1.284279
     49          1           0       -3.314066    1.413233    0.286120
     50          1           0       -6.105734    0.978226   -2.148425
     51          1           0       -4.534701    0.275492   -2.441126
     52          1           0       -4.651948    1.911049   -1.790667
     53          1           0       -5.366633    1.922539    1.044721
     54          1           0       -7.300540    2.720907    2.141524
     55          1           0       -7.587638    3.545483    0.615628
     56          1           0       -8.831288    2.495801    1.280993
     57          1           0       -6.310280   -0.867191    1.536190
     58          1           0       -6.014965   -3.586947    0.494471
     59          1           0       -6.816612   -3.095850    1.981962
     60          1           0       -7.620347   -2.876968    0.424590
     61          1           0        5.796359    1.915213    1.447509
     62          1           0        6.335415    3.891471    0.203169
     63          1           0        7.007333    3.593204   -1.408456
     64          1           0        7.854619    3.020915    0.023665
 ---------------------------------------------------------------------

 The electronic state is 1-A.
 Alpha  occ. eigenvalues --  -20.53589 -20.52663 -20.51642 -20.51620 -15.59574
 Alpha  occ. eigenvalues --  -15.58124 -15.57906 -15.57309 -11.35919 -11.34826
 Alpha  occ. eigenvalues --  -11.33826 -11.33669 -11.28948 -11.28788 -11.24985
 Alpha  occ. eigenvalues --  -11.24774 -11.24346 -11.24012 -11.23057 -11.22751
 Alpha  occ. eigenvalues --  -11.22744 -11.22490 -11.22470 -11.22427 -11.22355
 Alpha  occ. eigenvalues --  -11.22259 -11.22248 -11.20780  -1.40524  -1.39763
 Alpha  occ. eigenvalues --   -1.38488  -1.38362  -1.25370  -1.23976  -1.22684
 Alpha  occ. eigenvalues --   -1.21909  -1.11012  -1.09505  -1.07453  -1.04463
 Alpha  occ. eigenvalues --   -1.01371  -0.99561  -0.98924  -0.95717  -0.95402
 Alpha  occ. eigenvalues --   -0.94738  -0.91882  -0.87144  -0.85593  -0.82615
 Alpha  occ. eigenvalues --   -0.81348  -0.79713  -0.79135  -0.77090  -0.76597
 Alpha  occ. eigenvalues --   -0.72328  -0.71786  -0.71063  -0.69044  -0.68462
 Alpha  occ. eigenvalues --   -0.67277  -0.65637  -0.64896  -0.64030  -0.63611
 Alpha  occ. eigenvalues --   -0.63136  -0.62811  -0.62355  -0.61997  -0.61376
 Alpha  occ. eigenvalues --   -0.60854  -0.59855  -0.59488  -0.59068  -0.58644
 Alpha  occ. eigenvalues --   -0.58089  -0.57844  -0.57326  -0.56584  -0.55655
 Alpha  occ. eigenvalues --   -0.55111  -0.54689  -0.54556  -0.54433  -0.53958
 Alpha  occ. eigenvalues --   -0.53071  -0.52627  -0.52001  -0.51718  -0.51593
 Alpha  occ. eigenvalues --   -0.51005  -0.50816  -0.50396  -0.49362  -0.48309
 Alpha  occ. eigenvalues --   -0.48092  -0.47861  -0.47486  -0.45123  -0.42837
 Alpha  occ. eigenvalues --   -0.42005  -0.41781  -0.41607  -0.39238  -0.39156
 Alpha  occ. eigenvalues --   -0.38191  -0.38023  -0.34660
 Alpha virt. eigenvalues --    0.17957   0.18857   0.19177   0.20144   0.20562
 Alpha virt. eigenvalues --    0.21391   0.21947   0.23263   0.23552   0.24426
 Alpha virt. eigenvalues --    0.25123   0.25702   0.25975   0.26823   0.27082

 Mulliken atomic charges:
              1
     1  C   -0.277198
     2  N   -0.802140
     3  C    0.817580
     4  O   -0.641430
     5  C    0.098176
     6  C   -0.515769
     7  C   -0.349329
     8  C   -0.301273
     9  C   -0.352685
    10  C   -0.177607
    11  C   -0.162843
    12  C   -0.350447
    13  C   -0.323516
    14  C   -0.331720
    15  C    0.110890
    16  C   -0.476314
    17  N   -0.845582
    18  C    0.744335
    19  C   -0.588708
    20  O   -0.591877
    21  C    0.814155
    22  O   -0.625854
    23  N   -0.783809
    24  C   -0.277599
    25  N   -0.779756
    26  C    0.759020
    27  C   -0.592608
    28  O   -0.616252
    29  H    0.198778
    30  H    0.165665
    31  H    0.185065
    32  H    0.398088
    33  H    0.179838
    34  H    0.201563
    35  H    0.184301
    36  H    0.165644
    37  H    0.209546
    38  H    0.176884
    39  H    0.158758
    40  H    0.173958
    41  H    0.169734
    42  H    0.171829
    43  H    0.179311
    44  H    0.165994
    45  H    0.164575
    46  H    0.198044
    47  H    0.178309
    48  H    0.176950
    49  H    0.157646
    50  H    0.211769
    51  H    0.203574
    52  H    0.143325
    53  H    0.382059
    54  H    0.176848
    55  H    0.200910
    56  H    0.218773
    57  H    0.391695
    58  H    0.198192
    59  H    0.162019
    60  H    0.184702
    61  H    0.386118
    62  H    0.177642
    63  H    0.212059
    64  H    0.209994
 Sum of Mulliken atomic charges =   0.00000

 Dipole moment (field-independent basis, Debye):
    X=             -0.7647    Y=              3.8689    Z=              5.6385  Tot=              6.8808
 Quadrupole moment (field-independent basis, Debye-Ang):
   XX=           -220.4872   YY=           -152.2373   ZZ=           -175.2857
   XY=            -15.9334   XZ=            -28.1390   YZ=              4.0962

 Normal termination of Gaussian 09 at Sat Dec  7 00:37:03 2019.
