 Gaussian 09, Revision A.02,
 Gaussian 09:  EM64L-G09RevA.02 11-Jun-2009

 ------------------------------------------------------------
 #HF/6-31G* SCF=tight Test Pop=MK iop(6/33=2) iop(6/42=6) opt
 ------------------------------------------------------------

 ---------------------
 remark line goes here
 ---------------------
 Symbolic Z-matrix:
 Charge =  0 Multiplicity = 1

 SCF Done:  E(RHF) =  -1295.60597427     A.U. after   14 cycles
 SCF Done:  E(RHF) =  -1295.62457900     A.U. after   13 cycles
 SCF Done:  E(RHF) =  -1295.62657182     A.U. after   13 cycles
 SCF Done:  E(RHF) =  -1295.62749378     A.U. after   13 cycles
 SCF Done:  E(RHF) =  -1295.62716451     A.U. after   15 cycles
 SCF Done:  E(RHF) =  -1295.62842302     A.U. after   13 cycles
 SCF Done:  E(RHF) =  -1295.62834199     A.U. after   13 cycles
 SCF Done:  E(RHF) =  -1295.62879113     A.U. after   12 cycles
 SCF Done:  E(RHF) =  -1295.62888579     A.U. after   12 cycles
 SCF Done:  E(RHF) =  -1295.62891593     A.U. after   12 cycles
 SCF Done:  E(RHF) =  -1295.62909494     A.U. after   10 cycles
 SCF Done:  E(RHF) =  -1295.62909547     A.U. after   10 cycles
 SCF Done:  E(RHF) =  -1295.62909598     A.U. after    8 cycles
 SCF Done:  E(RHF) =  -1295.62909647     A.U. after    8 cycles
 SCF Done:  E(RHF) =  -1295.62909680     A.U. after    9 cycles
 SCF Done:  E(RHF) =  -1295.62909691     A.U. after    9 cycles
 SCF Done:  E(RHF) =  -1295.62909694     A.U. after    9 cycles
 SCF Done:  E(RHF) =  -1295.62909695     A.U. after    8 cycles
 SCF Done:  E(RHF) =  -1295.62909696     A.U. after    8 cycles
 SCF Done:  E(RHF) =  -1295.62909696     A.U. after    7 cycles
 Optimization completed.
    -- Stationary point found.

                         Standard orientation:
 ---------------------------------------------------------------------
 Center     Atomic      Atomic             Coordinates (Angstroms)
 Number     Number       Type             X           Y           Z
 ---------------------------------------------------------------------
      1          6           0        6.380353    1.793411   -2.418885
      2          7           0        5.625436    1.263562   -1.302801
      3          6           0        5.610660   -0.066829   -1.064415
      4          8           0        6.025377   -0.869639   -1.854540
      5          6           0        4.889976   -0.526449    0.217718
      6          6           0        5.377264   -1.923015    0.616164
      7          6           0        3.364504   -0.506951   -0.050128
      8          6           0        2.859812   -1.416774   -1.173372
      9          6           0        1.348246   -1.269292   -1.411876
     10          6           0        0.510780   -1.757712   -0.257514
     11          6           0       -0.410649   -1.103999    0.432288
     12          6           0       -0.871746    0.320880    0.243432
     13          6           0       -2.222931    0.449083   -0.482813
     14          6           0       -3.377490   -0.215383    0.275524
     15          6           0       -4.795370    0.058489   -0.279196
     16          6           0       -4.892748   -0.350463   -1.754705
     17          7           0       -5.073860    1.484380   -0.131565
     18          6           0       -6.331077    1.981457   -0.315234
     19          6           0       -6.551200    3.379017    0.217790
     20          8           0       -7.202780    1.358884   -0.856374
     21          6           0       -5.750871   -0.707336    0.667582
     22          8           0       -5.914625   -0.306265    1.789760
     23          7           0       -6.290534   -1.861561    0.226744
     24          6           0       -7.243062   -2.580371    1.048997
     25          7           0        5.103255    0.430668    1.312032
     26          6           0        6.328839    0.728421    1.828867
     27          6           0        6.307896    1.448439    3.160922
     28          8           0        7.351359    0.453251    1.267595
     29          1           0        6.149018    2.845545   -2.525288
     30          1           0        7.449245    1.676781   -2.275316
     31          1           0        6.098159    1.279107   -3.325378
     32          1           0        5.476482    1.861811   -0.524710
     33          1           0        6.425777   -1.896645    0.876425
     34          1           0        4.809037   -2.272256    1.473895
     35          1           0        5.256002   -2.622590   -0.196402
     36          1           0        2.866573   -0.783099    0.876434
     37          1           0        3.074759    0.517735   -0.267704
     38          1           0        3.080788   -2.453589   -0.940654
     39          1           0        3.382222   -1.192907   -2.095638
     40          1           0        1.090185   -1.857613   -2.290338
     41          1           0        1.116216   -0.239112   -1.658364
     42          1           0        0.699073   -2.784058    0.021874
     43          1           0       -0.908366   -1.646317    1.220684
     44          1           0       -0.132428    0.889204   -0.308782
     45          1           0       -0.952023    0.792671    1.221145
     46          1           0       -2.434589    1.504732   -0.627521
     47          1           0       -2.125457    0.013295   -1.471472
     48          1           0       -3.365340    0.101328    1.314538
     49          1           0       -3.233206   -1.291098    0.283391
     50          1           0       -4.281396    0.311661   -2.352988
     51          1           0       -4.526953   -1.362411   -1.900118
     52          1           0       -5.906735   -0.276031   -2.119644
     53          1           0       -4.548598    1.938490    0.582420
     54          1           0       -7.402118    3.817503   -0.282865
     55          1           0       -6.767331    3.316610    1.280171
     56          1           0       -5.679114    4.008357    0.081685
     57          1           0       -6.334995   -2.012334   -0.752966
     58          1           0       -6.820158   -2.754423    2.027196
     59          1           0       -7.453153   -3.533292    0.581212
     60          1           0       -8.169327   -2.029201    1.167952
     61          1           0        4.321874    0.576938    1.911704
     62          1           0        6.204666    0.718472    3.958278
     63          1           0        7.244877    1.969677    3.292122
     64          1           0        5.484511    2.150112    3.235754
 ---------------------------------------------------------------------

 The electronic state is 1-A.
 Alpha  occ. eigenvalues --  -20.53524 -20.52745 -20.51890 -20.51589 -15.59486
 Alpha  occ. eigenvalues --  -15.58176 -15.58119 -15.57282 -11.35852 -11.34860
 Alpha  occ. eigenvalues --  -11.33978 -11.33628 -11.28859 -11.28858 -11.25256
 Alpha  occ. eigenvalues --  -11.24764 -11.24279 -11.23724 -11.23513 -11.23334
 Alpha  occ. eigenvalues --  -11.23157 -11.23123 -11.23064 -11.22950 -11.22899
 Alpha  occ. eigenvalues --  -11.22504 -11.22061 -11.20753  -1.40455  -1.39860
 Alpha  occ. eigenvalues --   -1.38535  -1.38448  -1.25294  -1.24036  -1.22935
 Alpha  occ. eigenvalues --   -1.21876  -1.11501  -1.09749  -1.07578  -1.04657
 Alpha  occ. eigenvalues --   -1.01451  -0.99599  -0.99029  -0.95492  -0.95360
 Alpha  occ. eigenvalues --   -0.94824  -0.92826  -0.87815  -0.85955  -0.82650
 Alpha  occ. eigenvalues --   -0.81196  -0.79926  -0.79028  -0.77053  -0.76972
 Alpha  occ. eigenvalues --   -0.72965  -0.71401  -0.71104  -0.69194  -0.68800
 Alpha  occ. eigenvalues --   -0.66702  -0.65596  -0.65165  -0.64184  -0.63734
 Alpha  occ. eigenvalues --   -0.63461  -0.62628  -0.62290  -0.61903  -0.61614
 Alpha  occ. eigenvalues --   -0.60707  -0.60218  -0.59789  -0.59210  -0.58754
 Alpha  occ. eigenvalues --   -0.58137  -0.57692  -0.57494  -0.56632  -0.56226
 Alpha  occ. eigenvalues --   -0.55764  -0.55143  -0.54768  -0.54401  -0.54134
 Alpha  occ. eigenvalues --   -0.53582  -0.52647  -0.52238  -0.51992  -0.51830
 Alpha  occ. eigenvalues --   -0.51290  -0.50722  -0.50475  -0.49275  -0.48742
 Alpha  occ. eigenvalues --   -0.48212  -0.47765  -0.47633  -0.45669  -0.42774
 Alpha  occ. eigenvalues --   -0.41991  -0.41944  -0.41705  -0.39408  -0.39119
 Alpha  occ. eigenvalues --   -0.38431  -0.37989  -0.35281
 Alpha virt. eigenvalues --    0.17178   0.18919   0.19206   0.20288   0.20768
 Alpha virt. eigenvalues --    0.21139   0.21842   0.22995   0.23652   0.24097
 Alpha virt. eigenvalues --    0.24639   0.25360   0.25901   0.26106   0.27484

 Mulliken atomic charges:
              1
     1  C   -0.277527
     2  N   -0.783815
     3  C    0.814523
     4  O   -0.627480
     5  C    0.110414
     6  C   -0.477188
     7  C   -0.330044
     8  C   -0.328187
     9  C   -0.354746
    10  C   -0.165139
    11  C   -0.185242
    12  C   -0.350395
    13  C   -0.308056
    14  C   -0.351344
    15  C    0.104451
    16  C   -0.519982
    17  N   -0.780024
    18  C    0.760970
    19  C   -0.593585
    20  O   -0.613830
    21  C    0.810296
    22  O   -0.642664
    23  N   -0.801026
    24  C   -0.277009
    25  N   -0.845487
    26  C    0.743815
    27  C   -0.588575
    28  O   -0.592588
    29  H    0.161739
    30  H    0.184643
    31  H    0.198005
    32  H    0.391831
    33  H    0.211632
    34  H    0.144549
    35  H    0.201516
    36  H    0.171251
    37  H    0.172999
    38  H    0.169545
    39  H    0.201718
    40  H    0.180580
    41  H    0.168890
    42  H    0.176722
    43  H    0.179617
    44  H    0.172506
    45  H    0.162608
    46  H    0.167641
    47  H    0.173023
    48  H    0.189987
    49  H    0.188323
    50  H    0.190642
    51  H    0.159063
    52  H    0.218964
    53  H    0.383904
    54  H    0.212579
    55  H    0.208323
    56  H    0.178815
    57  H    0.398325
    58  H    0.198759
    59  H    0.166182
    60  H    0.185217
    61  H    0.382985
    62  H    0.201137
    63  H    0.218364
    64  H    0.176880
 Sum of Mulliken atomic charges =   0.00000

 Dipole moment (field-independent basis, Debye):
    X=             -1.5261    Y=              2.4788    Z=              2.2172  Tot=              3.6591
 Quadrupole moment (field-independent basis, Debye-Ang):
   XX=           -245.7460   YY=           -153.6652   ZZ=           -171.5948
   XY=             25.1330   XZ=             21.5642   YZ=              2.0867

 Normal termination of Gaussian 09 at Sat Dec  7 01:15:44 2019.
