 Gaussian 09, Revision A.02,
 Gaussian 09:  EM64L-G09RevA.02 11-Jun-2009

 ------------------------------------------------------------
 #HF/6-31G* SCF=tight Test Pop=MK iop(6/33=2) iop(6/42=6) opt
 ------------------------------------------------------------

 ---------------------
 remark line goes here
 ---------------------
 Symbolic Z-matrix:
 Charge =  0 Multiplicity = 1

 SCF Done:  E(RHF) =  -1295.59892273     A.U. after   14 cycles
 SCF Done:  E(RHF) =  -1295.61724831     A.U. after   13 cycles
 SCF Done:  E(RHF) =  -1295.61974032     A.U. after   16 cycles
 SCF Done:  E(RHF) =  -1295.62156134     A.U. after   13 cycles
 SCF Done:  E(RHF) =  -1295.62272023     A.U. after   15 cycles
 SCF Done:  E(RHF) =  -1295.62322395     A.U. after   13 cycles
 SCF Done:  E(RHF) =  -1295.62372213     A.U. after   13 cycles
 SCF Done:  E(RHF) =  -1295.62396813     A.U. after   12 cycles
 SCF Done:  E(RHF) =  -1295.62408041     A.U. after   12 cycles
 SCF Done:  E(RHF) =  -1295.62416549     A.U. after   13 cycles
 SCF Done:  E(RHF) =  -1295.62436745     A.U. after   10 cycles
 SCF Done:  E(RHF) =  -1295.62436803     A.U. after   10 cycles
 SCF Done:  E(RHF) =  -1295.62436858     A.U. after   10 cycles
 SCF Done:  E(RHF) =  -1295.62436917     A.U. after   10 cycles
 SCF Done:  E(RHF) =  -1295.62436967     A.U. after   10 cycles
 SCF Done:  E(RHF) =  -1295.62436999     A.U. after   10 cycles
 SCF Done:  E(RHF) =  -1295.62437023     A.U. after    9 cycles
 SCF Done:  E(RHF) =  -1295.62437036     A.U. after    9 cycles
 SCF Done:  E(RHF) =  -1295.62437039     A.U. after    9 cycles
 SCF Done:  E(RHF) =  -1295.62437041     A.U. after    7 cycles
 Optimization completed.
    -- Stationary point found.

                         Standard orientation:
 ---------------------------------------------------------------------
 Center     Atomic      Atomic             Coordinates (Angstroms)
 Number     Number       Type             X           Y           Z
 ---------------------------------------------------------------------
      1          6           0        7.280853   -2.266127   -1.955296
      2          7           0        6.189201   -1.890812   -1.079029
      3          6           0        5.930210   -0.588569   -0.841912
      4          8           0        6.477300    0.297437   -1.443516
      5          6           0        4.803314   -0.240713    0.160857
      6          6           0        4.386141   -1.395901    1.080258
      7          6           0        3.616222    0.224079   -0.715109
      8          6           0        2.349620    0.650181    0.033907
      9          6           0        1.294317    1.226615   -0.921912
     10          6           0        0.059039    1.682843   -0.190321
     11          6           0       -1.187918    1.260724   -0.324800
     12          6           0       -1.722672    0.202889   -1.257630
     13          6           0       -2.238229   -1.056622   -0.536074
     14          6           0       -3.432270   -0.907589    0.421571
     15          6           0       -4.827996   -0.579748   -0.171235
     16          6           0       -5.158336   -1.511833   -1.343875
     17          7           0       -4.849094    0.812959   -0.611330
     18          6           0       -6.021919    1.426297   -0.950653
     19          6           0       -5.957641    2.935353   -1.013122
     20          8           0       -7.030635    0.818884   -1.180975
     21          6           0       -5.794446   -0.696565    1.033086
     22          8           0       -5.781309    0.154844    1.882570
     23          7           0       -6.548472   -1.809814    1.137434
     24          6           0       -7.512143   -1.938125    2.212289
     25          7           0        5.252743    0.898544    0.955924
     26          6           0        6.429777    0.858736    1.644478
     27          6           0        6.942035    2.200758    2.115602
     28          8           0        7.020740   -0.163414    1.860236
     29          1           0        7.241474   -3.335337   -2.117593
     30          1           0        7.174335   -1.762187   -2.904312
     31          1           0        8.244851   -2.004350   -1.533254
     32          1           0        5.913622   -2.552947   -0.393270
     33          1           0        5.233678   -1.804645    1.610858
     34          1           0        3.897642   -2.183396    0.514182
     35          1           0        3.683674   -1.033216    1.818491
     36          1           0        3.370797   -0.587588   -1.394962
     37          1           0        3.967480    1.042058   -1.336686
     38          1           0        1.917455   -0.195041    0.559045
     39          1           0        2.590649    1.390559    0.791889
     40          1           0        1.722511    2.078677   -1.447696
     41          1           0        1.053400    0.489944   -1.679303
     42          1           0        0.239101    2.455338    0.542362
     43          1           0       -1.919776    1.729120    0.315208
     44          1           0       -2.516122    0.629794   -1.862496
     45          1           0       -0.949556   -0.109362   -1.949161
     46          1           0       -2.465563   -1.810471   -1.282813
     47          1           0       -1.418527   -1.459793    0.053156
     48          1           0       -3.537320   -1.854679    0.943296
     49          1           0       -3.213478   -0.175223    1.191168
     50          1           0       -6.182621   -1.394799   -1.665357
     51          1           0       -4.977289   -2.548595   -1.076498
     52          1           0       -4.523270   -1.272176   -2.186261
     53          1           0       -4.206101    1.404183   -0.134207
     54          1           0       -5.011646    3.285951   -1.409611
     55          1           0       -6.076498    3.330354   -0.008539
     56          1           0       -6.770130    3.298207   -1.625661
     57          1           0       -6.714205   -2.340945    0.315860
     58          1           0       -8.325227   -1.227744    2.111569
     59          1           0       -7.913390   -2.943036    2.198203
     60          1           0       -7.023962   -1.767620    3.160223
     61          1           0        5.024573    1.789424    0.573672
     62          1           0        7.473927    2.677421    1.297597
     63          1           0        7.631000    2.047966    2.933496
     64          1           0        6.137369    2.855913    2.429222
 ---------------------------------------------------------------------

 The electronic state is 1-A.
 Alpha  occ. eigenvalues --  -20.52777 -20.52700 -20.51920 -20.51871 -15.58192
 Alpha  occ. eigenvalues --  -15.58143 -15.58085 -15.58042 -11.34824 -11.34814
 Alpha  occ. eigenvalues --  -11.33965 -11.33953 -11.28870 -11.28854 -11.25265
 Alpha  occ. eigenvalues --  -11.25222 -11.23573 -11.23564 -11.23223 -11.23178
 Alpha  occ. eigenvalues --  -11.23155 -11.23113 -11.23023 -11.22985 -11.22947
 Alpha  occ. eigenvalues --  -11.22827 -11.22135 -11.22087  -1.39882  -1.39825
 Alpha  occ. eigenvalues --   -1.38552  -1.38510  -1.24004  -1.23967  -1.22946
 Alpha  occ. eigenvalues --   -1.22902  -1.11349  -1.09620  -1.07681  -1.04659
 Alpha  occ. eigenvalues --   -1.01343  -0.99368  -0.99039  -0.95976  -0.94952
 Alpha  occ. eigenvalues --   -0.94868  -0.93104  -0.88322  -0.86424  -0.81393
 Alpha  occ. eigenvalues --   -0.80780  -0.79893  -0.79439  -0.77060  -0.76922
 Alpha  occ. eigenvalues --   -0.72954  -0.71664  -0.71542  -0.68638  -0.68283
 Alpha  occ. eigenvalues --   -0.67614  -0.65655  -0.65167  -0.64093  -0.63826
 Alpha  occ. eigenvalues --   -0.62892  -0.62315  -0.61878  -0.61859  -0.61483
 Alpha  occ. eigenvalues --   -0.60966  -0.59841  -0.59518  -0.59062  -0.58581
 Alpha  occ. eigenvalues --   -0.58433  -0.57405  -0.56698  -0.56442  -0.56370
 Alpha  occ. eigenvalues --   -0.55890  -0.55189  -0.55003  -0.54823  -0.54241
 Alpha  occ. eigenvalues --   -0.54206  -0.53158  -0.52914  -0.52433  -0.52054
 Alpha  occ. eigenvalues --   -0.50924  -0.50423  -0.50125  -0.49253  -0.49027
 Alpha  occ. eigenvalues --   -0.48301  -0.47778  -0.47315  -0.45561  -0.42119
 Alpha  occ. eigenvalues --   -0.41953  -0.41672  -0.41656  -0.39408  -0.39344
 Alpha  occ. eigenvalues --   -0.38417  -0.38393  -0.35310
 Alpha virt. eigenvalues --    0.17445   0.19168   0.19285   0.19693   0.20668
 Alpha virt. eigenvalues --    0.21625   0.21770   0.22702   0.23553   0.23765
 Alpha virt. eigenvalues --    0.25236   0.25808   0.25962   0.26267   0.27046

 Mulliken atomic charges:
              1
     1  C   -0.277408
     2  N   -0.801045
     3  C    0.810171
     4  O   -0.641095
     5  C    0.105666
     6  C   -0.519814
     7  C   -0.347908
     8  C   -0.315963
     9  C   -0.348356
    10  C   -0.164291
    11  C   -0.176875
    12  C   -0.358397
    13  C   -0.308683
    14  C   -0.350185
    15  C    0.105221
    16  C   -0.522994
    17  N   -0.786885
    18  C    0.759631
    19  C   -0.596217
    20  O   -0.611969
    21  C    0.806468
    22  O   -0.641675
    23  N   -0.801128
    24  C   -0.276866
    25  N   -0.780142
    26  C    0.760996
    27  C   -0.593583
    28  O   -0.614604
    29  H    0.165635
    30  H    0.199299
    31  H    0.185297
    32  H    0.397753
    33  H    0.219016
    34  H    0.156614
    35  H    0.191575
    36  H    0.180648
    37  H    0.194546
    38  H    0.173541
    39  H    0.166788
    40  H    0.170553
    41  H    0.172345
    42  H    0.175483
    43  H    0.161968
    44  H    0.188264
    45  H    0.173336
    46  H    0.167654
    47  H    0.169445
    48  H    0.183469
    49  H    0.195515
    50  H    0.221736
    51  H    0.156997
    52  H    0.189417
    53  H    0.394482
    54  H    0.181621
    55  H    0.208867
    56  H    0.212409
    57  H    0.397706
    58  H    0.185109
    59  H    0.165858
    60  H    0.199535
    61  H    0.384658
    62  H    0.208565
    63  H    0.212582
    64  H    0.179644
 Sum of Mulliken atomic charges =   0.00000

 Dipole moment (field-independent basis, Debye):
    X=             -0.4081    Y=             -1.7129    Z=             -0.7058  Tot=              1.8971
 Quadrupole moment (field-independent basis, Debye-Ang):
   XX=           -221.7769   YY=           -147.9238   ZZ=           -181.8159
   XY=             11.0735   XZ=              0.5640   YZ=              5.4279

 Normal termination of Gaussian 09 at Sat Dec  7 01:40:28 2019.
