 Gaussian 09, Revision A.02,
 Gaussian 09:  EM64L-G09RevA.02 11-Jun-2009

 ------------------------------------------------------------
 #HF/6-31G* SCF=tight Test Pop=MK iop(6/33=2) iop(6/42=6) opt
 ------------------------------------------------------------

 ---------------------
 remark line goes here
 ---------------------
 Symbolic Z-matrix:
 Charge =  0 Multiplicity = 1

 SCF Done:  E(RHF) =  -1295.60484962     A.U. after   14 cycles
 SCF Done:  E(RHF) =  -1295.62359392     A.U. after   13 cycles
 SCF Done:  E(RHF) =  -1295.62548154     A.U. after   13 cycles
 SCF Done:  E(RHF) =  -1295.62637007     A.U. after   13 cycles
 SCF Done:  E(RHF) =  -1295.62693419     A.U. after   13 cycles
 SCF Done:  E(RHF) =  -1295.62649674     A.U. after   13 cycles
 SCF Done:  E(RHF) =  -1295.62718782     A.U. after   13 cycles
 SCF Done:  E(RHF) =  -1295.62744448     A.U. after   12 cycles
 SCF Done:  E(RHF) =  -1295.62766092     A.U. after   12 cycles
 SCF Done:  E(RHF) =  -1295.62768883     A.U. after   12 cycles
 SCF Done:  E(RHF) =  -1295.62788221     A.U. after    9 cycles
 SCF Done:  E(RHF) =  -1295.62788290     A.U. after    9 cycles
 SCF Done:  E(RHF) =  -1295.62788341     A.U. after    9 cycles
 SCF Done:  E(RHF) =  -1295.62788374     A.U. after    8 cycles
 SCF Done:  E(RHF) =  -1295.62788392     A.U. after    8 cycles
 SCF Done:  E(RHF) =  -1295.62788398     A.U. after    8 cycles
 SCF Done:  E(RHF) =  -1295.62788401     A.U. after    8 cycles
 SCF Done:  E(RHF) =  -1295.62788403     A.U. after    8 cycles
 SCF Done:  E(RHF) =  -1295.62788404     A.U. after    8 cycles
 SCF Done:  E(RHF) =  -1295.62788404     A.U. after    7 cycles
 Optimization completed.
    -- Stationary point found.

                         Standard orientation:
 ---------------------------------------------------------------------
 Center     Atomic      Atomic             Coordinates (Angstroms)
 Number     Number       Type             X           Y           Z
 ---------------------------------------------------------------------
      1          6           0        6.284681    3.072422    1.579209
      2          7           0        5.850146    2.277724    0.447637
      3          6           0        5.283909    1.067896    0.649099
      4          8           0        4.991210    0.676502    1.747579
      5          6           0        4.910489    0.238098   -0.601423
      6          6           0        5.756205    0.562181   -1.844099
      7          6           0        3.429645    0.528270   -0.959403
      8          6           0        2.356197    0.204597    0.087770
      9          6           0        0.953258    0.680022   -0.332375
     10          6           0        0.428247    0.034382   -1.592142
     11          6           0       -0.440966   -0.958956   -1.693100
     12          6           0       -1.138394   -1.715819   -0.591549
     13          6           0       -2.671506   -1.677392   -0.701032
     14          6           0       -3.237225   -0.274990   -0.462058
     15          6           0       -4.779755   -0.139365   -0.497841
     16          6           0       -5.350938   -0.531799   -1.863999
     17          7           0       -5.050546    1.275331   -0.207849
     18          6           0       -6.303624    1.803753   -0.118629
     19          6           0       -6.369029    3.316016   -0.165028
     20          8           0       -7.284519    1.125482    0.000063
     21          6           0       -5.370079   -1.049117    0.596820
     22          8           0       -5.746441   -2.158082    0.333335
     23          7           0       -5.313038   -0.581359    1.863382
     24          6           0       -5.945715   -1.315121    2.939258
     25          7           0        5.049693   -1.173550   -0.273261
     26          6           0        6.217392   -1.675406    0.221287
     27          6           0        6.109769   -3.049065    0.843433
     28          8           0        7.255714   -1.075949    0.170896
     29          1           0        5.462697    3.209030    2.266217
     30          1           0        7.102464    2.600951    2.112661
     31          1           0        6.605779    4.040561    1.217665
     32          1           0        6.299827    2.446492   -0.420470
     33          1           0        6.813384    0.470539   -1.643849
     34          1           0        5.500293   -0.138640   -2.629253
     35          1           0        5.541185    1.559671   -2.215113
     36          1           0        3.365817    1.584793   -1.205199
     37          1           0        3.218305   -0.016627   -1.874189
     38          1           0        2.610601    0.663506    1.034014
     39          1           0        2.304271   -0.866600    0.265661
     40          1           0        0.275460    0.502697    0.494385
     41          1           0        0.978576    1.758395   -0.477889
     42          1           0        0.823687    0.432593   -2.513413
     43          1           0       -0.693395   -1.294358   -2.688426
     44          1           0       -0.826158   -2.756932   -0.646678
     45          1           0       -0.832460   -1.359085    0.385740
     46          1           0       -2.964607   -2.036467   -1.682364
     47          1           0       -3.090176   -2.373158    0.016070
     48          1           0       -2.890704    0.085090    0.503112
     49          1           0       -2.832768    0.400372   -1.212414
     50          1           0       -6.416554   -0.354546   -1.892361
     51          1           0       -4.873268    0.061856   -2.638563
     52          1           0       -5.184562   -1.578270   -2.067967
     53          1           0       -4.317130    1.908480   -0.437474
     54          1           0       -7.294127    3.640608    0.288480
     55          1           0       -6.360255    3.640874   -1.201221
     56          1           0       -5.529946    3.779304    0.342131
     57          1           0       -5.205046    0.398842    1.977539
     58          1           0       -5.663578   -0.861500    3.880731
     59          1           0       -5.606665   -2.340213    2.928624
     60          1           0       -7.026887   -1.309087    2.851079
     61          1           0        4.226486   -1.620073    0.059628
     62          1           0        7.087256   -3.508806    0.854985
     63          1           0        5.764625   -2.940241    1.867213
     64          1           0        5.410722   -3.684352    0.311384
 ---------------------------------------------------------------------

 The electronic state is 1-A.
 Alpha  occ. eigenvalues --  -20.53476 -20.52366 -20.52088 -20.51523 -15.59447
 Alpha  occ. eigenvalues --  -15.58315 -15.57865 -15.57227 -11.35810 -11.34567
 Alpha  occ. eigenvalues --  -11.34134 -11.33569 -11.28971 -11.28817 -11.25433
 Alpha  occ. eigenvalues --  -11.24696 -11.24248 -11.23823 -11.23686 -11.23183
 Alpha  occ. eigenvalues --  -11.23125 -11.22942 -11.22903 -11.22799 -11.22773
 Alpha  occ. eigenvalues --  -11.22487 -11.22135 -11.20722  -1.40407  -1.39748
 Alpha  occ. eigenvalues --   -1.38486  -1.38386  -1.25254  -1.23910  -1.23038
 Alpha  occ. eigenvalues --   -1.21822  -1.11427  -1.09631  -1.07566  -1.04722
 Alpha  occ. eigenvalues --   -1.01483  -0.99484  -0.99004  -0.95499  -0.95317
 Alpha  occ. eigenvalues --   -0.94876  -0.92422  -0.87191  -0.85875  -0.82931
 Alpha  occ. eigenvalues --   -0.81745  -0.79892  -0.79016  -0.77280  -0.77005
 Alpha  occ. eigenvalues --   -0.72857  -0.71923  -0.71074  -0.69139  -0.68488
 Alpha  occ. eigenvalues --   -0.66285  -0.65600  -0.64897  -0.64540  -0.63773
 Alpha  occ. eigenvalues --   -0.63451  -0.62335  -0.62114  -0.61619  -0.61465
 Alpha  occ. eigenvalues --   -0.60702  -0.60170  -0.59587  -0.59011  -0.58722
 Alpha  occ. eigenvalues --   -0.57920  -0.57425  -0.57311  -0.56830  -0.56138
 Alpha  occ. eigenvalues --   -0.55755  -0.55339  -0.55090  -0.54367  -0.54191
 Alpha  occ. eigenvalues --   -0.53232  -0.52946  -0.52410  -0.51968  -0.51854
 Alpha  occ. eigenvalues --   -0.51248  -0.50699  -0.50166  -0.49316  -0.48918
 Alpha  occ. eigenvalues --   -0.48426  -0.47718  -0.47068  -0.45545  -0.42728
 Alpha  occ. eigenvalues --   -0.41907  -0.41903  -0.41397  -0.39314  -0.39055
 Alpha  occ. eigenvalues --   -0.38590  -0.37931  -0.35273
 Alpha virt. eigenvalues --    0.17181   0.18965   0.19331   0.20318   0.21031
 Alpha virt. eigenvalues --    0.21230   0.21753   0.22730   0.23357   0.24046
 Alpha virt. eigenvalues --    0.24672   0.25434   0.25809   0.26284   0.27057

 Mulliken atomic charges:
              1
     1  C   -0.276049
     2  N   -0.803810
     3  C    0.814774
     4  O   -0.637705
     5  C    0.094987
     6  C   -0.513590
     7  C   -0.330079
     8  C   -0.320161
     9  C   -0.352786
    10  C   -0.185142
    11  C   -0.165211
    12  C   -0.355658
    13  C   -0.327169
    14  C   -0.330678
    15  C    0.110624
    16  C   -0.476757
    17  N   -0.845651
    18  C    0.744186
    19  C   -0.588583
    20  O   -0.592652
    21  C    0.814955
    22  O   -0.627943
    23  N   -0.784044
    24  C   -0.277440
    25  N   -0.790034
    26  C    0.766297
    27  C   -0.595229
    28  O   -0.615200
    29  H    0.196473
    30  H    0.186999
    31  H    0.165046
    32  H    0.396705
    33  H    0.225269
    34  H    0.186030
    35  H    0.150329
    36  H    0.173935
    37  H    0.185642
    38  H    0.210161
    39  H    0.147899
    40  H    0.174948
    41  H    0.163609
    42  H    0.174600
    43  H    0.176312
    44  H    0.179460
    45  H    0.170459
    46  H    0.169813
    47  H    0.200943
    48  H    0.173567
    49  H    0.171282
    50  H    0.211820
    51  H    0.144067
    52  H    0.201105
    53  H    0.382972
    54  H    0.218395
    55  H    0.200599
    56  H    0.177052
    57  H    0.391954
    58  H    0.162353
    59  H    0.198040
    60  H    0.184403
    61  H    0.394618
    62  H    0.211787
    63  H    0.208733
    64  H    0.178372
 Sum of Mulliken atomic charges =   0.00000

 Dipole moment (field-independent basis, Debye):
    X=              1.7964    Y=              5.1764    Z=             -1.5920  Tot=              5.7058
 Quadrupole moment (field-independent basis, Debye-Ang):
   XX=           -240.1626   YY=           -155.7045   ZZ=           -167.0576
   XY=            -15.5663   XZ=            -14.7929   YZ=             -3.4024

 Normal termination of Gaussian 09 at Sat Dec  7 02:23:41 2019.
