 Gaussian 09, Revision A.02,
 Gaussian 09:  EM64L-G09RevA.02 11-Jun-2009

 ------------------------------------------------------------
 #HF/6-31G* SCF=tight Test Pop=MK iop(6/33=2) iop(6/42=6) opt
 ------------------------------------------------------------

 ---------------------
 remark line goes here
 ---------------------
 Symbolic Z-matrix:
 Charge =  0 Multiplicity = 1

 SCF Done:  E(RHF) =  -1295.59719237     A.U. after   14 cycles
 SCF Done:  E(RHF) =  -1295.61618680     A.U. after   13 cycles
 SCF Done:  E(RHF) =  -1295.61368832     A.U. after   13 cycles
 SCF Done:  E(RHF) =  -1295.61969405     A.U. after   13 cycles
 SCF Done:  E(RHF) =  -1295.62146680     A.U. after   13 cycles
 SCF Done:  E(RHF) =  -1295.62307869     A.U. after   13 cycles
 SCF Done:  E(RHF) =  -1295.62210610     A.U. after   15 cycles
 SCF Done:  E(RHF) =  -1295.62409335     A.U. after   13 cycles
 SCF Done:  E(RHF) =  -1295.62380476     A.U. after   12 cycles
 SCF Done:  E(RHF) =  -1295.62421535     A.U. after   12 cycles
 SCF Done:  E(RHF) =  -1295.62462530     A.U. after    9 cycles
 SCF Done:  E(RHF) =  -1295.62462763     A.U. after   10 cycles
 SCF Done:  E(RHF) =  -1295.62462893     A.U. after   10 cycles
 SCF Done:  E(RHF) =  -1295.62462943     A.U. after    9 cycles
 SCF Done:  E(RHF) =  -1295.62462961     A.U. after    8 cycles
 SCF Done:  E(RHF) =  -1295.62462966     A.U. after    8 cycles
 SCF Done:  E(RHF) =  -1295.62462967     A.U. after    7 cycles
 SCF Done:  E(RHF) =  -1295.62462969     A.U. after    7 cycles
 SCF Done:  E(RHF) =  -1295.62462969     A.U. after    7 cycles
 SCF Done:  E(RHF) =  -1295.62462970     A.U. after    6 cycles
 Optimization completed.
    -- Stationary point found.

                         Standard orientation:
 ---------------------------------------------------------------------
 Center     Atomic      Atomic             Coordinates (Angstroms)
 Number     Number       Type             X           Y           Z
 ---------------------------------------------------------------------
      1          6           0        5.231877    3.592711   -0.322088
      2          7           0        5.069875    2.222743   -0.765108
      3          6           0        4.727301    1.261641    0.116633
      4          8           0        4.406468    1.511406    1.248724
      5          6           0        4.638216   -0.196697   -0.394355
      6          6           0        5.361655   -0.452552   -1.723085
      7          6           0        3.123882   -0.483360   -0.525375
      8          6           0        2.742888   -1.891032   -0.995201
      9          6           0        1.223839   -2.131028   -0.962182
     10          6           0        0.470987   -1.304572   -1.973483
     11          6           0       -0.470632   -0.398136   -1.768971
     12          6           0       -1.062183    0.066879   -0.463855
     13          6           0       -2.576340   -0.183763   -0.394936
     14          6           0       -3.154560    0.306042    0.937562
     15          6           0       -4.674506    0.194734    1.195574
     16          6           0       -4.917443    0.544500    2.675988
     17          7           0       -5.157444   -1.170249    1.002079
     18          6           0       -5.583233   -1.639681   -0.203147
     19          6           0       -6.385938   -2.919977   -0.145297
     20          8           0       -5.345353   -1.081308   -1.237641
     21          6           0       -5.596498    1.159852    0.408952
     22          8           0       -6.787559    1.049047    0.516363
     23          7           0       -5.025541    2.178404   -0.266992
     24          6           0       -5.848892    3.066235   -1.063745
     25          7           0        5.177748   -1.065198    0.648215
     26          6           0        6.431620   -0.874204    1.149640
     27          6           0        6.717381   -1.591103    2.449785
     28          8           0        7.251337   -0.186759    0.605441
     29          1           0        4.343170    3.913121    0.201008
     30          1           0        6.081005    3.703541    0.343262
     31          1           0        5.375646    4.221986   -1.190698
     32          1           0        5.556907    1.952298   -1.586101
     33          1           0        5.354817   -1.512497   -1.938674
     34          1           0        6.393633   -0.136224   -1.679048
     35          1           0        4.859617    0.056270   -2.540535
     36          1           0        2.668560   -0.287753    0.441106
     37          1           0        2.705633    0.248243   -1.208843
     38          1           0        3.102357   -2.061283   -2.005446
     39          1           0        3.225306   -2.636775   -0.370106
     40          1           0        1.043865   -3.181950   -1.180581
     41          1           0        0.851865   -1.959609    0.041545
     42          1           0        0.752957   -1.497848   -2.998130
     43          1           0       -0.892532    0.076670   -2.642039
     44          1           0       -0.574735   -0.410920    0.378366
     45          1           0       -0.871472    1.134821   -0.358943
     46          1           0       -3.063197    0.288747   -1.240179
     47          1           0       -2.765718   -1.243649   -0.506950
     48          1           0       -2.675808   -0.263727    1.728888
     49          1           0       -2.860404    1.339568    1.107634
     50          1           0       -4.567105    1.547173    2.891851
     51          1           0       -4.377988   -0.145257    3.317620
     52          1           0       -5.973749    0.496637    2.906163
     53          1           0       -5.584639   -1.585545    1.799025
     54          1           0       -7.422389   -2.670308    0.060292
     55          1           0       -6.034038   -3.591103    0.630164
     56          1           0       -6.333656   -3.411652   -1.105767
     57          1           0       -4.073584    2.090543   -0.530033
     58          1           0       -6.299797    2.549930   -1.903764
     59          1           0       -5.229369    3.874137   -1.430822
     60          1           0       -6.637092    3.478184   -0.451405
     61          1           0        4.507693   -1.381069    1.313770
     62          1           0        7.786085   -1.696970    2.566807
     63          1           0        6.244122   -2.565561    2.489770
     64          1           0        6.335892   -0.990094    3.269850
 ---------------------------------------------------------------------

 The electronic state is 1-A.
 Alpha  occ. eigenvalues --  -20.52510 -20.52335 -20.51664 -20.51427 -15.58213
 Alpha  occ. eigenvalues --  -15.57977 -15.57906 -15.57868 -11.34648 -11.34634
 Alpha  occ. eigenvalues --  -11.33895 -11.33752 -11.28964 -11.28570 -11.25117
 Alpha  occ. eigenvalues --  -11.24957 -11.23091 -11.23015 -11.22962 -11.22925
 Alpha  occ. eigenvalues --  -11.22869 -11.22847 -11.22788 -11.22539 -11.22477
 Alpha  occ. eigenvalues --  -11.22335 -11.21859 -11.21852  -1.39665  -1.39624
 Alpha  occ. eigenvalues --   -1.38304  -1.38160  -1.23949  -1.23786  -1.22734
 Alpha  occ. eigenvalues --   -1.22657  -1.10942  -1.09315  -1.07392  -1.04614
 Alpha  occ. eigenvalues --   -1.01044  -0.99276  -0.98967  -0.95642  -0.95200
 Alpha  occ. eigenvalues --   -0.94638  -0.91986  -0.87150  -0.85560  -0.81891
 Alpha  occ. eigenvalues --   -0.80706  -0.79997  -0.79700  -0.77415  -0.76751
 Alpha  occ. eigenvalues --   -0.73000  -0.71375  -0.71193  -0.68450  -0.67811
 Alpha  occ. eigenvalues --   -0.66573  -0.65166  -0.64955  -0.63807  -0.63466
 Alpha  occ. eigenvalues --   -0.62542  -0.62116  -0.61720  -0.61557  -0.61365
 Alpha  occ. eigenvalues --   -0.61078  -0.59711  -0.59383  -0.58668  -0.58494
 Alpha  occ. eigenvalues --   -0.57687  -0.57337  -0.56936  -0.56198  -0.55679
 Alpha  occ. eigenvalues --   -0.55464  -0.55116  -0.54854  -0.54543  -0.53984
 Alpha  occ. eigenvalues --   -0.53886  -0.53382  -0.53113  -0.51875  -0.51447
 Alpha  occ. eigenvalues --   -0.50416  -0.50247  -0.49745  -0.49099  -0.48235
 Alpha  occ. eigenvalues --   -0.48040  -0.47369  -0.47153  -0.45280  -0.41769
 Alpha  occ. eigenvalues --   -0.41708  -0.41487  -0.41392  -0.39182  -0.39044
 Alpha  occ. eigenvalues --   -0.38310  -0.38228  -0.34633
 Alpha virt. eigenvalues --    0.18226   0.19296   0.19468   0.20764   0.21217
 Alpha virt. eigenvalues --    0.21517   0.22078   0.22903   0.23510   0.24359
 Alpha virt. eigenvalues --    0.24773   0.25646   0.26462   0.26829   0.27151

 Mulliken atomic charges:
              1
     1  C   -0.276280
     2  N   -0.801241
     3  C    0.810979
     4  O   -0.643276
     5  C    0.104704
     6  C   -0.520180
     7  C   -0.344437
     8  C   -0.318418
     9  C   -0.347923
    10  C   -0.175223
    11  C   -0.159102
    12  C   -0.351404
    13  C   -0.316621
    14  C   -0.309432
    15  C    0.106632
    16  C   -0.518017
    17  N   -0.794473
    18  C    0.772331
    19  C   -0.592117
    20  O   -0.616698
    21  C    0.821055
    22  O   -0.638078
    23  N   -0.807626
    24  C   -0.277936
    25  N   -0.780071
    26  C    0.761560
    27  C   -0.593528
    28  O   -0.614852
    29  H    0.198109
    30  H    0.184791
    31  H    0.165318
    32  H    0.397790
    33  H    0.190202
    34  H    0.218397
    35  H    0.157569
    36  H    0.188066
    37  H    0.192870
    38  H    0.166129
    39  H    0.167534
    40  H    0.174995
    41  H    0.167654
    42  H    0.173100
    43  H    0.176727
    44  H    0.167891
    45  H    0.161724
    46  H    0.176990
    47  H    0.186251
    48  H    0.170725
    49  H    0.159174
    50  H    0.186690
    51  H    0.171616
    52  H    0.207792
    53  H    0.384532
    54  H    0.209776
    55  H    0.175273
    56  H    0.212076
    57  H    0.396431
    58  H    0.187878
    59  H    0.163735
    60  H    0.199224
    61  H    0.383976
    62  H    0.211875
    63  H    0.178801
    64  H    0.207990
 Sum of Mulliken atomic charges =   0.00000

 Dipole moment (field-independent basis, Debye):
    X=              0.4945    Y=             -1.8154    Z=              0.5449  Tot=              1.9589
 Quadrupole moment (field-independent basis, Debye-Ang):
   XX=           -218.6772   YY=           -154.1719   ZZ=           -164.8310
   XY=              2.3332   XZ=            -18.7755   YZ=            -16.0620

 Normal termination of Gaussian 09 at Fri Dec  6 21:33:59 2019.
