 Gaussian 09, Revision A.02,
 Gaussian 09:  EM64L-G09RevA.02 11-Jun-2009

 ------------------------------------------------------------
 #HF/6-31G* SCF=tight Test Pop=MK iop(6/33=2) iop(6/42=6) opt
 ------------------------------------------------------------

 ---------------------
 remark line goes here
 ---------------------
 Symbolic Z-matrix:
 Charge =  0 Multiplicity = 1

 SCF Done:  E(RHF) =  -1295.59357416     A.U. after   14 cycles
 SCF Done:  E(RHF) =  -1295.61247186     A.U. after   13 cycles
 SCF Done:  E(RHF) =  -1295.61504318     A.U. after   13 cycles
 SCF Done:  E(RHF) =  -1295.61700360     A.U. after   13 cycles
 SCF Done:  E(RHF) =  -1295.61841424     A.U. after   13 cycles
 SCF Done:  E(RHF) =  -1295.61902173     A.U. after   13 cycles
 SCF Done:  E(RHF) =  -1295.61973433     A.U. after   13 cycles
 SCF Done:  E(RHF) =  -1295.61990143     A.U. after   12 cycles
 SCF Done:  E(RHF) =  -1295.62006270     A.U. after   11 cycles
 SCF Done:  E(RHF) =  -1295.62016546     A.U. after   12 cycles
 SCF Done:  E(RHF) =  -1295.62027764     A.U. after    9 cycles
 SCF Done:  E(RHF) =  -1295.62027863     A.U. after    9 cycles
 SCF Done:  E(RHF) =  -1295.62027925     A.U. after    8 cycles
 SCF Done:  E(RHF) =  -1295.62027954     A.U. after    8 cycles
 SCF Done:  E(RHF) =  -1295.62027964     A.U. after    8 cycles
 SCF Done:  E(RHF) =  -1295.62027966     A.U. after    8 cycles
 SCF Done:  E(RHF) =  -1295.62027968     A.U. after    7 cycles
 SCF Done:  E(RHF) =  -1295.62027969     A.U. after    6 cycles
 SCF Done:  E(RHF) =  -1295.62027971     A.U. after    6 cycles
 SCF Done:  E(RHF) =  -1295.62027972     A.U. after    7 cycles
 Optimization completed.
    -- Stationary point found.

                         Standard orientation:
 ---------------------------------------------------------------------
 Center     Atomic      Atomic             Coordinates (Angstroms)
 Number     Number       Type             X           Y           Z
 ---------------------------------------------------------------------
      1          6           0        7.442202   -2.843375   -0.773062
      2          7           0        6.355368   -2.111135   -0.153878
      3          6           0        6.014193   -0.891719   -0.619138
      4          8           0        6.475675   -0.436127   -1.631780
      5          6           0        4.906256   -0.108559    0.127348
      6          6           0        4.576554   -0.644564    1.525689
      7          6           0        3.671996   -0.168241   -0.804369
      8          6           0        2.416794    0.596943   -0.331947
      9          6           0        1.315696   -0.300783    0.255376
     10          6           0        0.141024    0.500025    0.754032
     11          6           0       -1.101949    0.506989    0.300152
     12          6           0       -1.679396   -0.297144   -0.839081
     13          6           0       -2.547403   -1.486055   -0.385658
     14          6           0       -3.814804   -1.186555    0.431703
     15          6           0       -5.009133   -0.490328   -0.272618
     16          6           0       -5.341438   -1.182261   -1.600759
     17          7           0       -4.678782    0.913981   -0.501787
     18          6           0       -5.635739    1.807286   -0.894889
     19          6           0       -5.260723    3.261126   -0.718270
     20          8           0       -6.695294    1.470412   -1.345342
     21          6           0       -6.150170   -0.529711    0.773380
     22          8           0       -6.099892    0.201163    1.727398
     23          7           0       -7.113999   -1.461512    0.627403
     24          6           0       -8.234123   -1.501743    1.546074
     25          7           0        5.332115    1.286196    0.215152
     26          6           0        6.536979    1.628058    0.753736
     27          6           0        6.992487    3.039918    0.462853
     28          8           0        7.194488    0.865717    1.407930
     29          1           0        7.476589   -3.837004   -0.345714
     30          1           0        7.266784   -2.923381   -1.835451
     31          1           0        8.397682   -2.354497   -0.618013
     32          1           0        6.162933   -2.314362    0.798209
     33          1           0        4.157406   -1.643963    1.469570
     34          1           0        5.451931   -0.656042    2.158825
     35          1           0        3.843058   -0.002224    1.995074
     36          1           0        3.426265   -1.215099   -0.959365
     37          1           0        3.990270    0.206842   -1.770081
     38          1           0        1.992072    1.129083   -1.177891
     39          1           0        2.688459    1.358971    0.392099
     40          1           0        1.008137   -1.021895   -0.493225
     41          1           0        1.717159   -0.876249    1.085538
     42          1           0        0.366645    1.151331    1.585146
     43          1           0       -1.792659    1.162505    0.807717
     44          1           0       -0.880838   -0.691266   -1.456760
     45          1           0       -2.259957    0.360127   -1.477632
     46          1           0       -1.927465   -2.130483    0.232146
     47          1           0       -2.808946   -2.073948   -1.259531
     48          1           0       -3.565953   -0.614158    1.319091
     49          1           0       -4.188286   -2.139771    0.795083
     50          1           0       -6.263268   -0.809071   -2.021470
     51          1           0       -5.410801   -2.257918   -1.469115
     52          1           0       -4.554204   -0.987592   -2.316794
     53          1           0       -4.020460    1.287723    0.144511
     54          1           0       -5.451386    3.546892    0.311946
     55          1           0       -4.213800    3.439836   -0.935374
     56          1           0       -5.878815    3.866364   -1.365287
     57          1           0       -7.251843   -1.856060   -0.272490
     58          1           0       -8.815467   -2.391619    1.343106
     59          1           0       -7.869865   -1.543653    2.561731
     60          1           0       -8.870087   -0.629295    1.444668
     61          1           0        5.027965    1.866140   -0.535116
     62          1           0        6.165753    3.740939    0.453214
     63          1           0        7.717083    3.336923    1.207013
     64          1           0        7.469362    3.057991   -0.512573
 ---------------------------------------------------------------------

 The electronic state is 1-A.
 Alpha  occ. eigenvalues --  -20.52782 -20.52741 -20.51908 -20.51869 -15.58194
 Alpha  occ. eigenvalues --  -15.58174 -15.58098 -15.58007 -11.34888 -11.34814
 Alpha  occ. eigenvalues --  -11.33954 -11.33948 -11.28891 -11.28828 -11.25269
 Alpha  occ. eigenvalues --  -11.25164 -11.23498 -11.23479 -11.23182 -11.23142
 Alpha  occ. eigenvalues --  -11.23090 -11.23077 -11.23045 -11.22992 -11.22954
 Alpha  occ. eigenvalues --  -11.22795 -11.22170 -11.22102  -1.39874  -1.39857
 Alpha  occ. eigenvalues --   -1.38544  -1.38526  -1.24061  -1.23945  -1.22944
 Alpha  occ. eigenvalues --   -1.22865  -1.11282  -1.09500  -1.07619  -1.04498
 Alpha  occ. eigenvalues --   -1.01227  -0.99365  -0.99040  -0.96093  -0.94940
 Alpha  occ. eigenvalues --   -0.94875  -0.93238  -0.88296  -0.86346  -0.81465
 Alpha  occ. eigenvalues --   -0.80687  -0.79926  -0.79387  -0.77032  -0.76948
 Alpha  occ. eigenvalues --   -0.72854  -0.71669  -0.71582  -0.68901  -0.68481
 Alpha  occ. eigenvalues --   -0.67183  -0.65597  -0.65122  -0.63998  -0.63679
 Alpha  occ. eigenvalues --   -0.62679  -0.62323  -0.61891  -0.61850  -0.61314
 Alpha  occ. eigenvalues --   -0.60780  -0.60240  -0.59347  -0.58943  -0.58631
 Alpha  occ. eigenvalues --   -0.58194  -0.57636  -0.56709  -0.56389  -0.56113
 Alpha  occ. eigenvalues --   -0.56020  -0.55657  -0.55052  -0.54899  -0.54696
 Alpha  occ. eigenvalues --   -0.54214  -0.53085  -0.52768  -0.52296  -0.51936
 Alpha  occ. eigenvalues --   -0.50769  -0.50311  -0.50032  -0.49418  -0.49058
 Alpha  occ. eigenvalues --   -0.48613  -0.47275  -0.47124  -0.45510  -0.42118
 Alpha  occ. eigenvalues --   -0.41884  -0.41725  -0.41643  -0.39419  -0.39321
 Alpha  occ. eigenvalues --   -0.38394  -0.38391  -0.35318
 Alpha virt. eigenvalues --    0.17181   0.19131   0.19209   0.19912   0.20822
 Alpha virt. eigenvalues --    0.21623   0.22031   0.22733   0.23101   0.24246
 Alpha virt. eigenvalues --    0.24843   0.25618   0.25899   0.26469   0.26619

 Mulliken atomic charges:
              1
     1  C   -0.278058
     2  N   -0.799772
     3  C    0.809446
     4  O   -0.640165
     5  C    0.101677
     6  C   -0.517426
     7  C   -0.353501
     8  C   -0.327393
     9  C   -0.351862
    10  C   -0.166418
    11  C   -0.178212
    12  C   -0.357345
    13  C   -0.306771
    14  C   -0.348751
    15  C    0.103963
    16  C   -0.523240
    17  N   -0.787198
    18  C    0.759549
    19  C   -0.596581
    20  O   -0.611041
    21  C    0.806255
    22  O   -0.641899
    23  N   -0.801490
    24  C   -0.276587
    25  N   -0.780813
    26  C    0.759905
    27  C   -0.592984
    28  O   -0.615694
    29  H    0.165705
    30  H    0.199209
    31  H    0.185278
    32  H    0.397866
    33  H    0.158868
    34  H    0.220207
    35  H    0.185764
    36  H    0.182363
    37  H    0.203893
    38  H    0.174427
    39  H    0.178259
    40  H    0.171686
    41  H    0.173659
    42  H    0.176683
    43  H    0.160728
    44  H    0.172747
    45  H    0.187139
    46  H    0.170890
    47  H    0.166932
    48  H    0.195507
    49  H    0.183181
    50  H    0.222091
    51  H    0.156700
    52  H    0.189639
    53  H    0.395198
    54  H    0.208976
    55  H    0.180841
    56  H    0.212459
    57  H    0.397699
    58  H    0.165874
    59  H    0.199630
    60  H    0.184966
    61  H    0.386249
    62  H    0.179663
    63  H    0.212549
    64  H    0.208878
 Sum of Mulliken atomic charges =   0.00000

 Dipole moment (field-independent basis, Debye):
    X=             -0.5408    Y=             -1.8732    Z=             -0.2418  Tot=              1.9647
 Quadrupole moment (field-independent basis, Debye-Ang):
   XX=           -215.5366   YY=           -149.3157   ZZ=           -184.5825
   XY=             14.7601   XZ=              5.1213   YZ=             -1.7612

 Normal termination of Gaussian 09 at Fri Dec  6 21:26:14 2019.
