 Gaussian 09, Revision A.02,
 Gaussian 09:  EM64L-G09RevA.02 11-Jun-2009

 ------------------------------------------------------------
 #HF/6-31G* SCF=tight Test Pop=MK iop(6/33=2) iop(6/42=6) opt
 ------------------------------------------------------------

 ---------------------
 remark line goes here
 ---------------------
 Symbolic Z-matrix:
 Charge =  0 Multiplicity = 1

 SCF Done:  E(RHF) =  -1295.60252227     A.U. after   14 cycles
 SCF Done:  E(RHF) =  -1295.62093644     A.U. after   12 cycles
 SCF Done:  E(RHF) =  -1295.62324148     A.U. after   13 cycles
 SCF Done:  E(RHF) =  -1295.62488501     A.U. after   13 cycles
 SCF Done:  E(RHF) =  -1295.62607647     A.U. after   13 cycles
 SCF Done:  E(RHF) =  -1295.62618409     A.U. after   13 cycles
 SCF Done:  E(RHF) =  -1295.62699028     A.U. after   13 cycles
 SCF Done:  E(RHF) =  -1295.62713117     A.U. after   12 cycles
 SCF Done:  E(RHF) =  -1295.62728555     A.U. after   11 cycles
 SCF Done:  E(RHF) =  -1295.62732927     A.U. after   12 cycles
 SCF Done:  E(RHF) =  -1295.62750163     A.U. after   10 cycles
 SCF Done:  E(RHF) =  -1295.62750316     A.U. after    9 cycles
 SCF Done:  E(RHF) =  -1295.62750437     A.U. after    9 cycles
 SCF Done:  E(RHF) =  -1295.62750507     A.U. after   10 cycles
 SCF Done:  E(RHF) =  -1295.62750540     A.U. after    9 cycles
 SCF Done:  E(RHF) =  -1295.62750569     A.U. after    9 cycles
 SCF Done:  E(RHF) =  -1295.62750580     A.U. after    9 cycles
 SCF Done:  E(RHF) =  -1295.62750583     A.U. after    8 cycles
 SCF Done:  E(RHF) =  -1295.62750585     A.U. after    8 cycles
 SCF Done:  E(RHF) =  -1295.62750587     A.U. after    8 cycles
 Optimization completed.
    -- Stationary point found.

                         Standard orientation:
 ---------------------------------------------------------------------
 Center     Atomic      Atomic             Coordinates (Angstroms)
 Number     Number       Type             X           Y           Z
 ---------------------------------------------------------------------
      1          6           0        6.130708    3.105024   -1.535074
      2          7           0        5.410338    1.847377   -1.534140
      3          6           0        5.359931    1.098622   -0.410709
      4          8           0        5.771514    1.502823    0.643915
      5          6           0        4.640113   -0.267130   -0.495292
      6          6           0        4.621977   -0.883516   -1.903743
      7          6           0        3.167174   -0.077074   -0.051375
      8          6           0        2.896222    0.514411    1.337301
      9          6           0        1.390770    0.629722    1.632742
     10          6           0        0.707438   -0.704148    1.795583
     11          6           0       -0.308405   -1.207575    1.113444
     12          6           0       -1.077177   -0.585005   -0.022764
     13          6           0       -2.557948   -0.378980    0.330947
     14          6           0       -3.331370    0.223987   -0.847773
     15          6           0       -4.860791    0.428808   -0.698480
     16          6           0       -5.359108    1.125508   -1.975338
     17          7           0       -5.113582    1.283094    0.453435
     18          6           0       -6.382267    1.509958    0.902391
     19          6           0       -6.471304    2.095581    2.293327
     20          8           0       -7.357731    1.264791    0.248361
     21          6           0       -5.512228   -0.948720   -0.434792
     22          8           0       -5.516438   -1.415059    0.673391
     23          7           0       -5.973626   -1.634700   -1.502689
     24          6           0       -6.651862   -2.901745   -1.314554
     25          7           0        5.293697   -1.186095    0.426309
     26          6           0        6.635900   -1.416676    0.368928
     27          6           0        7.220524   -2.097495    1.585738
     28          8           0        7.309745   -1.103671   -0.573566
     29          1           0        5.959539    3.599943   -2.482143
     30          1           0        5.764727    3.735396   -0.738255
     31          1           0        7.196103    2.959711   -1.395238
     32          1           0        5.303190    1.389313   -2.407641
     33          1           0        4.005859   -0.299193   -2.580215
     34          1           0        5.617675   -0.977744   -2.311333
     35          1           0        4.187408   -1.873769   -1.842550
     36          1           0        2.691853    0.561060   -0.791046
     37          1           0        2.687452   -1.047636   -0.129424
     38          1           0        3.347898    1.493989    1.419493
     39          1           0        3.352680   -0.090768    2.117217
     40          1           0        1.274757    1.185888    2.560930
     41          1           0        0.915815    1.224570    0.860591
     42          1           0        1.115834   -1.314489    2.587923
     43          1           0       -0.658292   -2.187452    1.401232
     44          1           0       -0.637484    0.359660   -0.322044
     45          1           0       -1.012187   -1.243068   -0.888136
     46          1           0       -2.606877    0.269648    1.201869
     47          1           0       -2.998231   -1.321855    0.629228
     48          1           0       -2.905493    1.193763   -1.092724
     49          1           0       -3.180363   -0.406953   -1.718889
     50          1           0       -5.029022    0.596292   -2.864039
     51          1           0       -6.434845    1.217902   -1.987576
     52          1           0       -4.935179    2.121466   -2.014217
     53          1           0       -4.420619    1.252723    1.165496
     54          1           0       -7.432070    2.574455    2.413961
     55          1           0       -6.391586    1.288515    3.015413
     56          1           0       -5.677851    2.808547    2.486911
     57          1           0       -6.181253   -1.130269   -2.331376
     58          1           0       -7.593266   -2.781037   -0.790315
     59          1           0       -6.025292   -3.569372   -0.741896
     60          1           0       -6.838362   -3.340664   -2.285949
     61          1           0        4.894485   -1.240793    1.334811
     62          1           0        7.421035   -1.344270    2.341725
     63          1           0        6.544841   -2.834000    2.005799
     64          1           0        8.152834   -2.569659    1.312136
 ---------------------------------------------------------------------

 The electronic state is 1-A.
 Alpha  occ. eigenvalues --  -20.52408 -20.52218 -20.52064 -20.51854 -15.58303
 Alpha  occ. eigenvalues --  -15.58118 -15.57852 -15.57739 -11.34578 -11.34443
 Alpha  occ. eigenvalues --  -11.34113 -11.33919 -11.28953 -11.28740 -11.25397
 Alpha  occ. eigenvalues --  -11.25254 -11.23893 -11.23429 -11.23058 -11.22920
 Alpha  occ. eigenvalues --  -11.22865 -11.22774 -11.22748 -11.22699 -11.22699
 Alpha  occ. eigenvalues --  -11.22619 -11.22129 -11.21948  -1.39749  -1.39571
 Alpha  occ. eigenvalues --   -1.38493  -1.38299  -1.23906  -1.23754  -1.23026
 Alpha  occ. eigenvalues --   -1.22843  -1.11216  -1.09476  -1.07522  -1.04886
 Alpha  occ. eigenvalues --   -1.01327  -0.99182  -0.98971  -0.95765  -0.95103
 Alpha  occ. eigenvalues --   -0.94763  -0.92037  -0.86975  -0.85719  -0.82386
 Alpha  occ. eigenvalues --   -0.81599  -0.79859  -0.79738  -0.77229  -0.77129
 Alpha  occ. eigenvalues --   -0.73206  -0.71889  -0.71706  -0.68270  -0.68152
 Alpha  occ. eigenvalues --   -0.66954  -0.64989  -0.64692  -0.64157  -0.64052
 Alpha  occ. eigenvalues --   -0.62765  -0.61819  -0.61666  -0.61528  -0.61177
 Alpha  occ. eigenvalues --   -0.61037  -0.59663  -0.59532  -0.58732  -0.58398
 Alpha  occ. eigenvalues --   -0.57551  -0.56987  -0.56771  -0.56262  -0.56064
 Alpha  occ. eigenvalues --   -0.55662  -0.55313  -0.55079  -0.54967  -0.54483
 Alpha  occ. eigenvalues --   -0.54054  -0.53377  -0.53255  -0.52031  -0.51672
 Alpha  occ. eigenvalues --   -0.51128  -0.50122  -0.50011  -0.49441  -0.48847
 Alpha  occ. eigenvalues --   -0.48337  -0.47581  -0.46916  -0.45547  -0.41948
 Alpha  occ. eigenvalues --   -0.41688  -0.41411  -0.41264  -0.39308  -0.39132
 Alpha  occ. eigenvalues --   -0.38599  -0.38432  -0.35019
 Alpha virt. eigenvalues --    0.18042   0.19196   0.19498   0.21128   0.21308
 Alpha virt. eigenvalues --    0.21428   0.21746   0.22756   0.23026   0.23678
 Alpha virt. eigenvalues --    0.24740   0.25627   0.26036   0.26530   0.27175

 Mulliken atomic charges:
              1
     1  C   -0.276201
     2  N   -0.804464
     3  C    0.816571
     4  O   -0.638623
     5  C    0.095039
     6  C   -0.512049
     7  C   -0.325985
     8  C   -0.324454
     9  C   -0.352738
    10  C   -0.171806
    11  C   -0.168523
    12  C   -0.348424
    13  C   -0.328599
    14  C   -0.324615
    15  C    0.093294
    16  C   -0.513334
    17  N   -0.788944
    18  C    0.765462
    19  C   -0.595581
    20  O   -0.613959
    21  C    0.814681
    22  O   -0.637800
    23  N   -0.804054
    24  C   -0.276046
    25  N   -0.789095
    26  C    0.766966
    27  C   -0.594919
    28  O   -0.615984
    29  H    0.164639
    30  H    0.196903
    31  H    0.186470
    32  H    0.396236
    33  H    0.150026
    34  H    0.224194
    35  H    0.185428
    36  H    0.172516
    37  H    0.190774
    38  H    0.205400
    39  H    0.144328
    40  H    0.178253
    41  H    0.167587
    42  H    0.172407
    43  H    0.180350
    44  H    0.166472
    45  H    0.167577
    46  H    0.151577
    47  H    0.207669
    48  H    0.177396
    49  H    0.177177
    50  H    0.150644
    51  H    0.225988
    52  H    0.185567
    53  H    0.394067
    54  H    0.211730
    55  H    0.209212
    56  H    0.178206
    57  H    0.396749
    58  H    0.186688
    59  H    0.197176
    60  H    0.165481
    61  H    0.391907
    62  H    0.208734
    63  H    0.177180
    64  H    0.211473
 Sum of Mulliken atomic charges =   0.00000

 Dipole moment (field-independent basis, Debye):
    X=             -0.5888    Y=              0.0119    Z=             -2.1388  Tot=              2.2184
 Quadrupole moment (field-independent basis, Debye-Ang):
   XX=           -234.5224   YY=           -165.3018   ZZ=           -155.9352
   XY=             -0.2316   XZ=             10.7108   YZ=             -1.7563

 Normal termination of Gaussian 09 at Fri Dec  6 21:24:28 2019.
