 Gaussian 09, Revision A.02,
 Gaussian 09:  EM64L-G09RevA.02 11-Jun-2009

 ------------------------------------------------------------
 #HF/6-31G* SCF=tight Test Pop=MK iop(6/33=2) iop(6/42=6) opt
 ------------------------------------------------------------

 ---------------------
 remark line goes here
 ---------------------
 Symbolic Z-matrix:
 Charge =  0 Multiplicity = 1

 SCF Done:  E(RHF) =  -1295.59332896     A.U. after   14 cycles
 SCF Done:  E(RHF) =  -1295.61243865     A.U. after   13 cycles
 SCF Done:  E(RHF) =  -1295.61488455     A.U. after   13 cycles
 SCF Done:  E(RHF) =  -1295.61646912     A.U. after   16 cycles
 SCF Done:  E(RHF) =  -1295.61756602     A.U. after   13 cycles
 SCF Done:  E(RHF) =  -1295.61819113     A.U. after   13 cycles
 SCF Done:  E(RHF) =  -1295.61857601     A.U. after   16 cycles
 SCF Done:  E(RHF) =  -1295.61860547     A.U. after   12 cycles
 SCF Done:  E(RHF) =  -1295.61886158     A.U. after   12 cycles
 SCF Done:  E(RHF) =  -1295.61896146     A.U. after   11 cycles
 SCF Done:  E(RHF) =  -1295.61917452     A.U. after    9 cycles
 SCF Done:  E(RHF) =  -1295.61917485     A.U. after   10 cycles
 SCF Done:  E(RHF) =  -1295.61917518     A.U. after    7 cycles
 SCF Done:  E(RHF) =  -1295.61917538     A.U. after    9 cycles
 SCF Done:  E(RHF) =  -1295.61917551     A.U. after    9 cycles
 SCF Done:  E(RHF) =  -1295.61917562     A.U. after    9 cycles
 SCF Done:  E(RHF) =  -1295.61917571     A.U. after    8 cycles
 SCF Done:  E(RHF) =  -1295.61917580     A.U. after    9 cycles
 SCF Done:  E(RHF) =  -1295.61917583     A.U. after    9 cycles
 SCF Done:  E(RHF) =  -1295.61917584     A.U. after    8 cycles
 Optimization completed.
    -- Stationary point found.

                         Standard orientation:
 ---------------------------------------------------------------------
 Center     Atomic      Atomic             Coordinates (Angstroms)
 Number     Number       Type             X           Y           Z
 ---------------------------------------------------------------------
      1          6           0        7.711658   -2.124969    1.442395
      2          7           0        6.384699   -1.687886    1.057983
      3          6           0        6.209080   -0.892052   -0.015834
      4          8           0        7.111991   -0.614079   -0.759965
      5          6           0        4.763233   -0.448693   -0.359814
      6          6           0        4.259733   -1.512925   -1.353027
      7          6           0        3.843884   -0.348227    0.885283
      8          6           0        2.604085    0.554532    0.806857
      9          6           0        1.518536    0.182908   -0.213305
     10          6           0        0.298870    1.054201   -0.055240
     11          6           0       -0.937694    0.696358    0.251027
     12          6           0       -1.464213   -0.692494    0.519482
     13          6           0       -2.277720   -1.287516   -0.645275
     14          6           0       -3.564992   -0.563512   -1.072891
     15          6           0       -4.785312   -0.583317   -0.114960
     16          6           0       -5.073013   -2.007408    0.377340
     17          7           0       -4.521055    0.299889    1.017926
     18          6           0       -5.516497    0.648193    1.886752
     19          6           0       -5.210583    1.843593    2.760141
     20          8           0       -6.557422    0.055486    1.955415
     21          6           0       -5.931907    0.053877   -0.937766
     22          8           0       -5.922384    1.239189   -1.141596
     23          7           0       -6.851870   -0.765851   -1.486368
     24          6           0       -7.977259   -0.214015   -2.213801
     25          7           0        4.845699    0.814762   -1.080380
     26          6           0        5.468090    1.896069   -0.521268
     27          6           0        5.885894    2.970417   -1.498240
     28          8           0        5.661299    1.989583    0.658634
     29          1           0        8.203791   -2.587894    0.599664
     30          1           0        7.618262   -2.851419    2.238898
     31          1           0        8.323196   -1.297931    1.784858
     32          1           0        5.665861   -1.742299    1.738943
     33          1           0        3.277645   -1.266294   -1.730883
     34          1           0        4.943689   -1.596340   -2.190722
     35          1           0        4.207049   -2.481741   -0.870655
     36          1           0        3.525477   -1.355801    1.147293
     37          1           0        4.428668    0.030429    1.712472
     38          1           0        2.919777    1.577222    0.641680
     39          1           0        2.153493    0.536124    1.796046
     40          1           0        1.901808    0.326633   -1.218911
     41          1           0        1.261969   -0.866716   -0.120379
     42          1           0        0.483252    2.106452   -0.211535
     43          1           0       -1.664047    1.492072    0.312669
     44          1           0       -0.641200   -1.367893    0.722262
     45          1           0       -2.069610   -0.674383    1.419569
     46          1           0       -1.632773   -1.310769   -1.519856
     47          1           0       -2.503229   -2.323746   -0.414334
     48          1           0       -3.351159    0.469590   -1.325545
     49          1           0       -3.895715   -1.027528   -1.997859
     50          1           0       -5.094882   -2.706440   -0.453366
     51          1           0       -6.006747   -2.058016    0.917459
     52          1           0       -4.288522   -2.321702    1.052710
     53          1           0       -3.880199    1.035647    0.821436
     54          1           0       -4.172142    1.865012    3.070378
     55          1           0       -5.853199    1.820384    3.628187
     56          1           0       -5.419267    2.748413    2.197032
     57          1           0       -6.966228   -1.669992   -1.094013
     58          1           0       -8.517915   -1.026339   -2.681684
     59          1           0       -8.649332    0.333250   -1.562074
     60          1           0       -7.620452    0.458218   -2.979824
     61          1           0        5.006881    0.711977   -2.058133
     62          1           0        6.825504    2.675114   -1.955295
     63          1           0        6.034626    3.897221   -0.963666
     64          1           0        5.152250    3.111526   -2.283982
 ---------------------------------------------------------------------

 The electronic state is 1-A.
 Alpha  occ. eigenvalues --  -20.52691 -20.52662 -20.52059 -20.51814 -15.58480
 Alpha  occ. eigenvalues --  -15.58099 -15.57976 -15.57895 -11.34701 -11.34690
 Alpha  occ. eigenvalues --  -11.34155 -11.33852 -11.29029 -11.28728 -11.25565
 Alpha  occ. eigenvalues --  -11.25192 -11.23375 -11.23197 -11.23025 -11.22943
 Alpha  occ. eigenvalues --  -11.22857 -11.22826 -11.22807 -11.22641 -11.22583
 Alpha  occ. eigenvalues --  -11.22537 -11.22243 -11.22025  -1.39920  -1.39762
 Alpha  occ. eigenvalues --   -1.38617  -1.38442  -1.23952  -1.23836  -1.23192
 Alpha  occ. eigenvalues --   -1.22849  -1.10900  -1.09205  -1.07462  -1.04381
 Alpha  occ. eigenvalues --   -1.01087  -0.99312  -0.98997  -0.96294  -0.95518
 Alpha  occ. eigenvalues --   -0.94841  -0.92691  -0.87754  -0.86104  -0.81663
 Alpha  occ. eigenvalues --   -0.80491  -0.79851  -0.79273  -0.76939  -0.76634
 Alpha  occ. eigenvalues --   -0.72742  -0.72221  -0.71552  -0.68394  -0.68162
 Alpha  occ. eigenvalues --   -0.66944  -0.65462  -0.64833  -0.63926  -0.63863
 Alpha  occ. eigenvalues --   -0.62845  -0.62260  -0.62085  -0.61766  -0.61412
 Alpha  occ. eigenvalues --   -0.60668  -0.60254  -0.59188  -0.59027  -0.58503
 Alpha  occ. eigenvalues --   -0.58214  -0.57416  -0.57040  -0.56392  -0.56235
 Alpha  occ. eigenvalues --   -0.55934  -0.55324  -0.54963  -0.54857  -0.54256
 Alpha  occ. eigenvalues --   -0.54066  -0.53604  -0.52729  -0.52390  -0.51098
 Alpha  occ. eigenvalues --   -0.50677  -0.50506  -0.49901  -0.48960  -0.48894
 Alpha  occ. eigenvalues --   -0.47891  -0.47114  -0.46957  -0.45275  -0.42172
 Alpha  occ. eigenvalues --   -0.42002  -0.41630  -0.41534  -0.39228  -0.39195
 Alpha  occ. eigenvalues --   -0.38807  -0.38288  -0.34925
 Alpha virt. eigenvalues --    0.17645   0.19270   0.19334   0.20103   0.20696
 Alpha virt. eigenvalues --    0.21530   0.21765   0.22883   0.23608   0.24282
 Alpha virt. eigenvalues --    0.25659   0.25985   0.26197   0.26638   0.26984

 Mulliken atomic charges:
              1
     1  C   -0.273161
     2  N   -0.807705
     3  C    0.808594
     4  O   -0.641539
     5  C    0.104878
     6  C   -0.506562
     7  C   -0.352127
     8  C   -0.294883
     9  C   -0.356110
    10  C   -0.161537
    11  C   -0.182154
    12  C   -0.355605
    13  C   -0.306028
    14  C   -0.348677
    15  C    0.104652
    16  C   -0.523019
    17  N   -0.787824
    18  C    0.759556
    19  C   -0.596552
    20  O   -0.612131
    21  C    0.806123
    22  O   -0.641443
    23  N   -0.801336
    24  C   -0.276586
    25  N   -0.775080
    26  C    0.762837
    27  C   -0.596305
    28  O   -0.612500
    29  H    0.198813
    30  H    0.165557
    31  H    0.186306
    32  H    0.397261
    33  H    0.189774
    34  H    0.189044
    35  H    0.181361
    36  H    0.149730
    37  H    0.207813
    38  H    0.186218
    39  H    0.166445
    40  H    0.174130
    41  H    0.162027
    42  H    0.178230
    43  H    0.159183
    44  H    0.170730
    45  H    0.185802
    46  H    0.169768
    47  H    0.165185
    48  H    0.196268
    49  H    0.182401
    50  H    0.156451
    51  H    0.221597
    52  H    0.189268
    53  H    0.396320
    54  H    0.181702
    55  H    0.212103
    56  H    0.208989
    57  H    0.397456
    58  H    0.165501
    59  H    0.184907
    60  H    0.199476
    61  H    0.383468
    62  H    0.212280
    63  H    0.211539
    64  H    0.179121
 Sum of Mulliken atomic charges =   0.00000

 Dipole moment (field-independent basis, Debye):
    X=              0.2000    Y=             -3.6446    Z=             -1.1364  Tot=              3.8229
 Quadrupole moment (field-independent basis, Debye-Ang):
   XX=           -212.2328   YY=           -164.0427   ZZ=           -166.5175
   XY=              2.4824   XZ=              9.4236   YZ=             -2.7206

 Normal termination of Gaussian 09 at Fri Nov 22 04:00:47 2019.
