 Gaussian 09, Revision A.02,
 Gaussian 09:  EM64L-G09RevA.02 11-Jun-2009

 ------------------------------------------------------------
 #HF/6-31G* SCF=tight Test Pop=MK iop(6/33=2) iop(6/42=6) opt
 ------------------------------------------------------------

 ---------------------
 remark line goes here
 ---------------------
 Symbolic Z-matrix:
 Charge =  0 Multiplicity = 1

 SCF Done:  E(RHF) =  -1295.59565487     A.U. after   14 cycles
 SCF Done:  E(RHF) =  -1295.61475591     A.U. after   13 cycles
 SCF Done:  E(RHF) =  -1295.61665516     A.U. after   16 cycles
 SCF Done:  E(RHF) =  -1295.61771290     A.U. after   13 cycles
 SCF Done:  E(RHF) =  -1295.61848781     A.U. after   13 cycles
 SCF Done:  E(RHF) =  -1295.61805791     A.U. after   13 cycles
 SCF Done:  E(RHF) =  -1295.61892174     A.U. after   13 cycles
 SCF Done:  E(RHF) =  -1295.61932701     A.U. after   12 cycles
 SCF Done:  E(RHF) =  -1295.61920527     A.U. after   13 cycles
 SCF Done:  E(RHF) =  -1295.61957571     A.U. after   12 cycles
 SCF Done:  E(RHF) =  -1295.61976176     A.U. after    9 cycles
 SCF Done:  E(RHF) =  -1295.61976329     A.U. after    8 cycles
 SCF Done:  E(RHF) =  -1295.61976398     A.U. after    9 cycles
 SCF Done:  E(RHF) =  -1295.61976460     A.U. after    9 cycles
 SCF Done:  E(RHF) =  -1295.61976509     A.U. after    9 cycles
 SCF Done:  E(RHF) =  -1295.61976550     A.U. after    9 cycles
 SCF Done:  E(RHF) =  -1295.61976590     A.U. after    9 cycles
 SCF Done:  E(RHF) =  -1295.61976612     A.U. after    9 cycles
 SCF Done:  E(RHF) =  -1295.61976619     A.U. after    8 cycles
 SCF Done:  E(RHF) =  -1295.61976621     A.U. after    7 cycles
 Optimization completed.
    -- Stationary point found.

                         Standard orientation:
 ---------------------------------------------------------------------
 Center     Atomic      Atomic             Coordinates (Angstroms)
 Number     Number       Type             X           Y           Z
 ---------------------------------------------------------------------
      1          6           0       -7.116498   -2.421069   -1.645158
      2          7           0       -6.621503   -1.767085   -0.450165
      3          6           0       -5.597440   -0.891227   -0.536300
      4          8           0       -4.972230   -0.738809   -1.551891
      5          6           0       -5.166912   -0.164189    0.758150
      6          6           0       -6.271750   -0.057918    1.823396
      7          6           0       -3.982400   -0.939413    1.399654
      8          6           0       -2.819055   -1.461309    0.535961
      9          6           0       -1.865740   -0.445370   -0.118853
     10          6           0       -1.149052    0.450413    0.862072
     11          6           0        0.137846    0.461244    1.170893
     12          6           0        1.243341   -0.404293    0.624922
     13          6           0        2.281527    0.423120   -0.150485
     14          6           0        3.472703   -0.400514   -0.682294
     15          6           0        4.792252   -0.332494    0.129943
     16          6           0        4.609932   -0.815889    1.571341
     17          7           0        5.736692   -1.194563   -0.593293
     18          6           0        7.034133   -1.379217   -0.217852
     19          6           0        7.731993   -2.553450   -0.871574
     20          8           0        7.589499   -0.660206    0.563529
     21          6           0        5.277690    1.130990    0.131321
     22          8           0        5.016707    1.861440    1.048210
     23          7           0        5.887046    1.564776   -0.992932
     24          6           0        6.470962    2.888692   -1.041469
     25          7           0       -4.732774    1.180522    0.399784
     26          6           0       -5.521975    2.017205   -0.328320
     27          6           0       -4.821980    3.234377   -0.889215
     28          8           0       -6.688725    1.807255   -0.518991
     29          1           0       -7.567618   -1.715047   -2.333436
     30          1           0       -7.854244   -3.157600   -1.354666
     31          1           0       -6.303145   -2.919584   -2.151235
     32          1           0       -7.258894   -1.667721    0.303589
     33          1           0       -6.560747   -1.035488    2.195535
     34          1           0       -5.888306    0.507911    2.664099
     35          1           0       -7.142276    0.454570    1.440935
     36          1           0       -3.599940   -0.317880    2.204446
     37          1           0       -4.417077   -1.809765    1.880179
     38          1           0       -2.225066   -2.094946    1.190193
     39          1           0       -3.210345   -2.102907   -0.243626
     40          1           0       -2.414781    0.150826   -0.840549
     41          1           0       -1.146578   -1.008113   -0.701292
     42          1           0       -1.767124    1.167359    1.381978
     43          1           0        0.464020    1.185521    1.901898
     44          1           0        1.725747   -0.910082    1.457074
     45          1           0        0.850003   -1.182275   -0.019551
     46          1           0        2.635966    1.238620    0.468263
     47          1           0        1.776678    0.882876   -0.994190
     48          1           0        3.703303   -0.085289   -1.694401
     49          1           0        3.182731   -1.448277   -0.745104
     50          1           0        3.921305   -0.181118    2.107973
     51          1           0        5.553797   -0.798377    2.097040
     52          1           0        4.227097   -1.832338    1.566706
     53          1           0        5.326376   -1.917954   -1.140810
     54          1           0        7.494875   -3.459462   -0.321829
     55          1           0        8.799581   -2.394945   -0.827609
     56          1           0        7.424310   -2.692421   -1.902068
     57          1           0        6.259191    0.874353   -1.601344
     58          1           0        7.333904    2.973190   -0.389695
     59          1           0        5.737957    3.620765   -0.737019
     60          1           0        6.773195    3.096549   -2.059837
     61          1           0       -3.755077    1.318524    0.302752
     62          1           0       -5.553706    4.007384   -1.074271
     63          1           0       -4.358864    2.963090   -1.833090
     64          1           0       -4.051943    3.608938   -0.224456
 ---------------------------------------------------------------------

 The electronic state is 1-A.
 Alpha  occ. eigenvalues --  -20.53592 -20.52127 -20.51809 -20.51695 -15.59581
 Alpha  occ. eigenvalues --  -15.58052 -15.57783 -15.57350 -11.35925 -11.34422
 Alpha  occ. eigenvalues --  -11.33912 -11.33728 -11.29004 -11.28770 -11.25168
 Alpha  occ. eigenvalues --  -11.24775 -11.24331 -11.23992 -11.23516 -11.22660
 Alpha  occ. eigenvalues --  -11.22642 -11.22549 -11.22457 -11.22344 -11.22291
 Alpha  occ. eigenvalues --  -11.22184 -11.21881 -11.20920  -1.40530  -1.39529
 Alpha  occ. eigenvalues --   -1.38530  -1.38232  -1.25390  -1.23737  -1.22792
 Alpha  occ. eigenvalues --   -1.21952  -1.10843  -1.09244  -1.07455  -1.04339
 Alpha  occ. eigenvalues --   -1.01345  -0.99439  -0.98793  -0.95640  -0.95338
 Alpha  occ. eigenvalues --   -0.94728  -0.92148  -0.87241  -0.85917  -0.82724
 Alpha  occ. eigenvalues --   -0.81690  -0.79163  -0.78888  -0.77173  -0.77167
 Alpha  occ. eigenvalues --   -0.72565  -0.71798  -0.71199  -0.69082  -0.67701
 Alpha  occ. eigenvalues --   -0.66867  -0.65683  -0.64696  -0.64182  -0.63883
 Alpha  occ. eigenvalues --   -0.62691  -0.62330  -0.61829  -0.61336  -0.61010
 Alpha  occ. eigenvalues --   -0.60677  -0.59785  -0.59548  -0.59037  -0.58540
 Alpha  occ. eigenvalues --   -0.58382  -0.57881  -0.56892  -0.56403  -0.56148
 Alpha  occ. eigenvalues --   -0.55706  -0.55084  -0.54860  -0.54435  -0.53801
 Alpha  occ. eigenvalues --   -0.53366  -0.52905  -0.52449  -0.51989  -0.51640
 Alpha  occ. eigenvalues --   -0.51141  -0.50247  -0.49866  -0.49212  -0.48666
 Alpha  occ. eigenvalues --   -0.48364  -0.47071  -0.46334  -0.45149  -0.42838
 Alpha  occ. eigenvalues --   -0.41996  -0.41555  -0.41165  -0.39180  -0.39053
 Alpha  occ. eigenvalues --   -0.38407  -0.38015  -0.34780
 Alpha virt. eigenvalues --    0.17834   0.18872   0.19424   0.20133   0.20591
 Alpha virt. eigenvalues --    0.20854   0.21729   0.23274   0.23741   0.24464
 Alpha virt. eigenvalues --    0.25267   0.25478   0.25912   0.26790   0.27081

 Mulliken atomic charges:
              1
     1  C   -0.276818
     2  N   -0.804950
     3  C    0.821542
     4  O   -0.641163
     5  C    0.100736
     6  C   -0.511577
     7  C   -0.342757
     8  C   -0.301783
     9  C   -0.373798
    10  C   -0.183060
    11  C   -0.168211
    12  C   -0.353927
    13  C   -0.340175
    14  C   -0.335413
    15  C    0.107236
    16  C   -0.474658
    17  N   -0.846294
    18  C    0.744294
    19  C   -0.588752
    20  O   -0.591897
    21  C    0.816665
    22  O   -0.627871
    23  N   -0.783677
    24  C   -0.276986
    25  N   -0.806399
    26  C    0.768159
    27  C   -0.595025
    28  O   -0.618386
    29  H    0.186923
    30  H    0.165016
    31  H    0.196344
    32  H    0.396895
    33  H    0.151283
    34  H    0.183191
    35  H    0.224379
    36  H    0.182674
    37  H    0.179291
    38  H    0.161690
    39  H    0.189457
    40  H    0.190218
    41  H    0.176350
    42  H    0.162036
    43  H    0.183408
    44  H    0.175604
    45  H    0.166339
    46  H    0.213923
    47  H    0.174476
    48  H    0.184327
    49  H    0.159963
    50  H    0.197065
    51  H    0.214278
    52  H    0.144376
    53  H    0.382865
    54  H    0.200819
    55  H    0.218830
    56  H    0.177413
    57  H    0.392227
    58  H    0.184556
    59  H    0.198804
    60  H    0.162604
    61  H    0.409283
    62  H    0.211500
    63  H    0.208696
    64  H    0.177839
 Sum of Mulliken atomic charges =   0.00000

 Dipole moment (field-independent basis, Debye):
    X=              0.5465    Y=             -4.8050    Z=             -2.0805  Tot=              5.2645
 Quadrupole moment (field-independent basis, Debye-Ang):
   XX=           -188.6468   YY=           -159.7054   ZZ=           -174.0460
   XY=             -4.8340   XZ=            -43.1553   YZ=             -2.6049

 Normal termination of Gaussian 09 at Fri Nov 22 04:38:09 2019.
