 Gaussian 09, Revision A.02,
 Gaussian 09:  EM64L-G09RevA.02 11-Jun-2009

 ------------------------------------------------------------
 #HF/6-31G* SCF=tight Test Pop=MK iop(6/33=2) iop(6/42=6) opt
 ------------------------------------------------------------

 ---------------------
 remark line goes here
 ---------------------
 Symbolic Z-matrix:
 Charge =  0 Multiplicity = 1

 SCF Done:  E(RHF) =  -1295.60451424     A.U. after   14 cycles
 SCF Done:  E(RHF) =  -1295.62253980     A.U. after   13 cycles
 SCF Done:  E(RHF) =  -1295.62544296     A.U. after   13 cycles
 SCF Done:  E(RHF) =  -1295.62748514     A.U. after   13 cycles
 SCF Done:  E(RHF) =  -1295.62761744     A.U. after   13 cycles
 SCF Done:  E(RHF) =  -1295.62924301     A.U. after   13 cycles
 SCF Done:  E(RHF) =  -1295.62941851     A.U. after   13 cycles
 SCF Done:  E(RHF) =  -1295.62954209     A.U. after   13 cycles
 SCF Done:  E(RHF) =  -1295.62994383     A.U. after   12 cycles
 SCF Done:  E(RHF) =  -1295.63001381     A.U. after   12 cycles
 SCF Done:  E(RHF) =  -1295.63042474     A.U. after    9 cycles
 SCF Done:  E(RHF) =  -1295.63042551     A.U. after    9 cycles
 SCF Done:  E(RHF) =  -1295.63042589     A.U. after    9 cycles
 SCF Done:  E(RHF) =  -1295.63042621     A.U. after    8 cycles
 SCF Done:  E(RHF) =  -1295.63042645     A.U. after    9 cycles
 SCF Done:  E(RHF) =  -1295.63042663     A.U. after    9 cycles
 SCF Done:  E(RHF) =  -1295.63042676     A.U. after    9 cycles
 SCF Done:  E(RHF) =  -1295.63042684     A.U. after    9 cycles
 SCF Done:  E(RHF) =  -1295.63042687     A.U. after    8 cycles
 SCF Done:  E(RHF) =  -1295.63042687     A.U. after    7 cycles
 Optimization completed.
    -- Stationary point found.

                         Standard orientation:
 ---------------------------------------------------------------------
 Center     Atomic      Atomic             Coordinates (Angstroms)
 Number     Number       Type             X           Y           Z
 ---------------------------------------------------------------------
      1          6           0       -8.006298   -0.138777    0.710759
      2          7           0       -6.832731   -0.063630   -0.136074
      3          6           0       -5.600993   -0.148290    0.407717
      4          8           0       -5.419904   -0.138120    1.596434
      5          6           0       -4.381854   -0.140197   -0.546194
      6          6           0       -4.715295   -0.450057   -2.011175
      7          6           0       -3.768515    1.272593   -0.401200
      8          6           0       -2.525173    1.552366   -1.252727
      9          6           0       -1.863152    2.904154   -0.928381
     10          6           0       -1.278542    2.984500    0.461598
     11          6           0       -0.008460    2.867104    0.814967
     12          6           0        1.191419    2.620386   -0.061753
     13          6           0        1.921994    1.323389    0.316139
     14          6           0        3.156159    1.101169   -0.561809
     15          6           0        4.070027   -0.080871   -0.180005
     16          6           0        3.260772   -1.382873   -0.095078
     17          7           0        5.071238   -0.152286   -1.262171
     18          6           0        5.987334   -1.115272   -1.497239
     19          6           0        6.886618   -0.875682   -2.691969
     20          8           0        6.126552   -2.100485   -0.814117
     21          6           0        4.799162    0.242599    1.150167
     22          8           0        4.721108    1.332938    1.655590
     23          7           0        5.508812   -0.758140    1.700395
     24          6           0        6.314905   -0.522217    2.878935
     25          7           0       -3.411687   -1.104591   -0.035485
     26          6           0       -3.758749   -2.402037    0.196620
     27          6           0       -2.785283   -3.183855    1.049073
     28          8           0       -4.764735   -2.892330   -0.238351
     29          1           0       -7.932046    0.594379    1.500004
     30          1           0       -8.116405   -1.118992    1.161403
     31          1           0       -8.880141    0.077391    0.110037
     32          1           0       -6.943045   -0.335505   -1.083947
     33          1           0       -5.245208   -1.386791   -2.105908
     34          1           0       -5.306311    0.347915   -2.450716
     35          1           0       -3.798726   -0.535553   -2.579198
     36          1           0       -3.546001    1.417882    0.649560
     37          1           0       -4.539003    1.997167   -0.652317
     38          1           0       -2.796176    1.552556   -2.303900
     39          1           0       -1.791339    0.762862   -1.121554
     40          1           0       -1.098498    3.096308   -1.671693
     41          1           0       -2.601308    3.695522   -1.043015
     42          1           0       -1.990454    3.158251    1.252577
     43          1           0        0.221485    2.952403    1.866286
     44          1           0        1.882607    3.453382    0.051881
     45          1           0        0.910735    2.588201   -1.108923
     46          1           0        2.216331    1.370602    1.356963
     47          1           0        1.230167    0.493047    0.210861
     48          1           0        2.830279    0.932334   -1.586338
     49          1           0        3.755614    2.004667   -0.553776
     50          1           0        3.891330   -2.250805    0.006168
     51          1           0        2.588405   -1.349133    0.753281
     52          1           0        2.669746   -1.498099   -0.997693
     53          1           0        5.111655    0.647992   -1.850815
     54          1           0        6.475247   -0.173248   -3.406550
     55          1           0        7.838030   -0.494005   -2.336494
     56          1           0        7.069041   -1.823349   -3.179356
     57          1           0        5.725685   -1.545773    1.129088
     58          1           0        7.134238    0.161246    2.681409
     59          1           0        5.706743   -0.101147    3.666841
     60          1           0        6.718406   -1.468648    3.213056
     61          1           0       -2.742209   -0.728510    0.598934
     62          1           0       -2.999231   -2.982755    2.094496
     63          1           0       -2.923466   -4.239331    0.864793
     64          1           0       -1.756224   -2.906747    0.850784
 ---------------------------------------------------------------------

 The electronic state is 1-A.
 Alpha  occ. eigenvalues --  -20.53791 -20.52384 -20.52088 -20.51578 -15.60235
 Alpha  occ. eigenvalues --  -15.57863 -15.57774 -15.57047 -11.36635 -11.34527
 Alpha  occ. eigenvalues --  -11.33932 -11.33663 -11.29576 -11.28542 -11.24978
 Alpha  occ. eigenvalues --  -11.24867 -11.24406 -11.23175 -11.23103 -11.22752
 Alpha  occ. eigenvalues --  -11.22733 -11.22650 -11.22420 -11.22360 -11.22163
 Alpha  occ. eigenvalues --  -11.22143 -11.22112 -11.21853  -1.40632  -1.39519
 Alpha  occ. eigenvalues --   -1.38785  -1.38211  -1.25573  -1.23702  -1.22620
 Alpha  occ. eigenvalues --   -1.22204  -1.10984  -1.09645  -1.07530  -1.04506
 Alpha  occ. eigenvalues --   -1.01312  -0.99802  -0.98885  -0.95709  -0.94778
 Alpha  occ. eigenvalues --   -0.94534  -0.92731  -0.88029  -0.85885  -0.82170
 Alpha  occ. eigenvalues --   -0.80843  -0.79630  -0.79319  -0.77166  -0.76693
 Alpha  occ. eigenvalues --   -0.72610  -0.72214  -0.71025  -0.69477  -0.68525
 Alpha  occ. eigenvalues --   -0.66764  -0.65502  -0.65095  -0.63887  -0.63710
 Alpha  occ. eigenvalues --   -0.63432  -0.62841  -0.62329  -0.61590  -0.61448
 Alpha  occ. eigenvalues --   -0.60868  -0.60224  -0.59295  -0.59026  -0.58454
 Alpha  occ. eigenvalues --   -0.58061  -0.57876  -0.56626  -0.56353  -0.55978
 Alpha  occ. eigenvalues --   -0.55164  -0.54857  -0.54622  -0.54438  -0.53918
 Alpha  occ. eigenvalues --   -0.53572  -0.53111  -0.52647  -0.52600  -0.52066
 Alpha  occ. eigenvalues --   -0.51488  -0.50512  -0.50108  -0.48856  -0.48388
 Alpha  occ. eigenvalues --   -0.47845  -0.47706  -0.47216  -0.45037  -0.43804
 Alpha  occ. eigenvalues --   -0.42707  -0.41614  -0.41387  -0.39094  -0.38900
 Alpha  occ. eigenvalues --   -0.38118  -0.37887  -0.34618
 Alpha virt. eigenvalues --    0.17860   0.18179   0.19562   0.20333   0.20837
 Alpha virt. eigenvalues --    0.21446   0.21923   0.22973   0.23969   0.24850
 Alpha virt. eigenvalues --    0.25329   0.26185   0.26234   0.26700   0.27318

 Mulliken atomic charges:
              1
     1  C   -0.277154
     2  N   -0.801207
     3  C    0.810696
     4  O   -0.640487
     5  C    0.106394
     6  C   -0.519584
     7  C   -0.351357
     8  C   -0.309874
     9  C   -0.349414
    10  C   -0.189843
    11  C   -0.162121
    12  C   -0.351416
    13  C   -0.322128
    14  C   -0.325255
    15  C    0.103942
    16  C   -0.491867
    17  N   -0.835705
    18  C    0.775524
    19  C   -0.579458
    20  O   -0.641930
    21  C    0.797248
    22  O   -0.631059
    23  N   -0.814523
    24  C   -0.271891
    25  N   -0.782272
    26  C    0.761456
    27  C   -0.592577
    28  O   -0.616815
    29  H    0.199214
    30  H    0.184838
    31  H    0.165004
    32  H    0.397263
    33  H    0.217929
    34  H    0.156972
    35  H    0.189183
    36  H    0.201509
    37  H    0.179369
    38  H    0.165351
    39  H    0.168583
    40  H    0.174821
    41  H    0.167150
    42  H    0.181203
    43  H    0.182100
    44  H    0.178405
    45  H    0.161895
    46  H    0.200498
    47  H    0.157887
    48  H    0.160357
    49  H    0.191247
    50  H    0.216752
    51  H    0.176473
    52  H    0.168017
    53  H    0.393022
    54  H    0.173722
    55  H    0.208262
    56  H    0.216122
    57  H    0.447399
    58  H    0.171694
    59  H    0.192857
    60  H    0.170512
    61  H    0.387911
    62  H    0.209454
    63  H    0.211344
    64  H    0.178362
 Sum of Mulliken atomic charges =   0.00000

 Dipole moment (field-independent basis, Debye):
    X=              1.8262    Y=              1.6180    Z=             -4.6732  Tot=              5.2718
 Quadrupole moment (field-independent basis, Debye-Ang):
   XX=           -162.7679   YY=           -187.2107   ZZ=           -166.3324
   XY=            -10.2092   XZ=             -1.5864   YZ=            -10.7301

 Normal termination of Gaussian 09 at Fri Nov 22 06:55:05 2019.
