 Gaussian 09, Revision A.02,
 Gaussian 09:  EM64L-G09RevA.02 11-Jun-2009

 ------------------------------------------------------------
 #HF/6-31G* SCF=tight Test Pop=MK iop(6/33=2) iop(6/42=6) opt
 ------------------------------------------------------------

 ---------------------
 remark line goes here
 ---------------------
 Symbolic Z-matrix:
 Charge =  0 Multiplicity = 1

 SCF Done:  E(RHF) =  -1295.59612081     A.U. after   14 cycles
 SCF Done:  E(RHF) =  -1295.61502541     A.U. after   13 cycles
 SCF Done:  E(RHF) =  -1295.61242396     A.U. after   13 cycles
 SCF Done:  E(RHF) =  -1295.61845926     A.U. after   13 cycles
 SCF Done:  E(RHF) =  -1295.62018844     A.U. after   13 cycles
 SCF Done:  E(RHF) =  -1295.62178940     A.U. after   13 cycles
 SCF Done:  E(RHF) =  -1295.62097341     A.U. after   16 cycles
 SCF Done:  E(RHF) =  -1295.62288895     A.U. after   14 cycles
 SCF Done:  E(RHF) =  -1295.62285997     A.U. after   13 cycles
 SCF Done:  E(RHF) =  -1295.62308210     A.U. after   12 cycles
 SCF Done:  E(RHF) =  -1295.62345386     A.U. after   10 cycles
 SCF Done:  E(RHF) =  -1295.62345765     A.U. after    9 cycles
 SCF Done:  E(RHF) =  -1295.62346050     A.U. after    9 cycles
 SCF Done:  E(RHF) =  -1295.62346179     A.U. after    9 cycles
 SCF Done:  E(RHF) =  -1295.62346223     A.U. after    8 cycles
 SCF Done:  E(RHF) =  -1295.62346242     A.U. after    9 cycles
 SCF Done:  E(RHF) =  -1295.62346249     A.U. after    8 cycles
 SCF Done:  E(RHF) =  -1295.62346250     A.U. after    7 cycles
 SCF Done:  E(RHF) =  -1295.62346251     A.U. after    7 cycles
 SCF Done:  E(RHF) =  -1295.62346252     A.U. after    7 cycles
 Optimization completed.
    -- Stationary point found.

                         Standard orientation:
 ---------------------------------------------------------------------
 Center     Atomic      Atomic             Coordinates (Angstroms)
 Number     Number       Type             X           Y           Z
 ---------------------------------------------------------------------
      1          6           0        6.051339    2.677753   -1.916179
      2          7           0        5.347968    2.003631   -0.842655
      3          6           0        5.972813    1.039821   -0.134260
      4          8           0        7.150067    0.827305   -0.239325
      5          6           0        5.166097    0.292221    0.957145
      6          6           0        5.739075    0.811498    2.289350
      7          6           0        3.638434    0.526641    0.988368
      8          6           0        2.757070   -0.082575   -0.107958
      9          6           0        1.284032    0.307147    0.088429
     10          6           0        0.396191   -0.268987   -0.983781
     11          6           0       -0.617902   -1.107871   -0.845934
     12          6           0       -1.156177   -1.700216    0.434902
     13          6           0       -2.401491   -0.981302    0.984952
     14          6           0       -3.619326   -1.101834    0.062268
     15          6           0       -4.858346   -0.268550    0.466831
     16          6           0       -5.302988   -0.598411    1.897542
     17          7           0       -4.502570    1.143695    0.363009
     18          6           0       -5.453090    2.118816    0.416667
     19          6           0       -5.001850    3.481361   -0.058229
     20          8           0       -6.569919    1.915645    0.807799
     21          6           0       -5.916737   -0.568901   -0.622244
     22          8           0       -5.755002   -0.143451   -1.735274
     23          7           0       -6.939398   -1.389098   -0.303939
     24          6           0       -7.991893   -1.644031   -1.266896
     25          7           0        5.493507   -1.129473    0.884686
     26          6           0        5.621708   -1.797825   -0.294858
     27          6           0        6.317040   -3.137304   -0.201421
     28          8           0        5.217692   -1.358728   -1.335328
     29          1           0        6.975164    3.092069   -1.541058
     30          1           0        5.428403    3.482455   -2.284526
     31          1           0        6.283095    2.001579   -2.731384
     32          1           0        4.359165    1.967576   -0.907707
     33          1           0        5.296223    0.274788    3.122624
     34          1           0        6.813527    0.685420    2.312105
     35          1           0        5.517398    1.865234    2.413097
     36          1           0        3.295703    0.128001    1.939051
     37          1           0        3.465226    1.599262    1.045186
     38          1           0        2.843172   -1.161398   -0.087585
     39          1           0        3.083988    0.215612   -1.097347
     40          1           0        1.195957    1.393482    0.063543
     41          1           0        0.952477    0.000792    1.074567
     42          1           0        0.642254    0.048343   -1.985888
     43          1           0       -1.128669   -1.409240   -1.746319
     44          1           0       -1.400105   -2.745938    0.259438
     45          1           0       -0.391756   -1.694563    1.203324
     46          1           0       -2.156739    0.062962    1.153913
     47          1           0       -2.635400   -1.406308    1.956017
     48          1           0       -3.355157   -0.812148   -0.948265
     49          1           0       -3.922389   -2.144565    0.011083
     50          1           0       -4.553554   -0.252708    2.596737
     51          1           0       -5.413809   -1.670397    2.031026
     52          1           0       -6.231605   -0.105232    2.145964
     53          1           0       -3.733070    1.338588   -0.238561
     54          1           0       -5.085312    3.517612   -1.140294
     55          1           0       -5.650756    4.234896    0.363915
     56          1           0       -3.972720    3.687164    0.213100
     57          1           0       -7.170947   -1.494491    0.655131
     58          1           0       -8.579800   -0.754934   -1.466640
     59          1           0       -7.559380   -1.984236   -2.195944
     60          1           0       -8.638619   -2.418164   -0.874919
     61          1           0        6.043819   -1.477206    1.637249
     62          1           0        6.084562   -3.657671    0.720921
     63          1           0        7.389714   -2.974776   -0.243675
     64          1           0        6.026697   -3.744020   -1.046734
 ---------------------------------------------------------------------

 The electronic state is 1-A.
 Alpha  occ. eigenvalues --  -20.52458 -20.52447 -20.51636 -20.51567 -15.58348
 Alpha  occ. eigenvalues --  -15.58015 -15.57921 -15.57839 -11.34767 -11.34596
 Alpha  occ. eigenvalues --  -11.34025 -11.33723 -11.29116 -11.28604 -11.25041
 Alpha  occ. eigenvalues --  -11.25032 -11.23289 -11.23169 -11.23074 -11.23052
 Alpha  occ. eigenvalues --  -11.22835 -11.22825 -11.22772 -11.22759 -11.22593
 Alpha  occ. eigenvalues --  -11.22332 -11.22052 -11.21904  -1.39799  -1.39582
 Alpha  occ. eigenvalues --   -1.38294  -1.38270  -1.24080  -1.23770  -1.22769
 Alpha  occ. eigenvalues --   -1.22678  -1.11013  -1.09407  -1.07507  -1.04630
 Alpha  occ. eigenvalues --   -1.01116  -0.99354  -0.98956  -0.95701  -0.95211
 Alpha  occ. eigenvalues --   -0.94603  -0.92171  -0.87241  -0.85668  -0.82234
 Alpha  occ. eigenvalues --   -0.80704  -0.80120  -0.79696  -0.77522  -0.76759
 Alpha  occ. eigenvalues --   -0.72662  -0.71457  -0.71073  -0.68597  -0.67937
 Alpha  occ. eigenvalues --   -0.66576  -0.65538  -0.64995  -0.63758  -0.63643
 Alpha  occ. eigenvalues --   -0.62984  -0.62288  -0.61730  -0.61646  -0.61580
 Alpha  occ. eigenvalues --   -0.60638  -0.59631  -0.59079  -0.58875  -0.58601
 Alpha  occ. eigenvalues --   -0.57857  -0.57532  -0.56483  -0.56380  -0.55926
 Alpha  occ. eigenvalues --   -0.55354  -0.55112  -0.54697  -0.54377  -0.54221
 Alpha  occ. eigenvalues --   -0.54083  -0.53404  -0.52976  -0.52716  -0.51645
 Alpha  occ. eigenvalues --   -0.50381  -0.50157  -0.49991  -0.49153  -0.48437
 Alpha  occ. eigenvalues --   -0.48297  -0.47473  -0.47197  -0.44977  -0.41869
 Alpha  occ. eigenvalues --   -0.41671  -0.41524  -0.41454  -0.39192  -0.39146
 Alpha  occ. eigenvalues --   -0.38430  -0.38178  -0.34776
 Alpha virt. eigenvalues --    0.17552   0.19154   0.19492   0.20604   0.21367
 Alpha virt. eigenvalues --    0.21388   0.22352   0.22738   0.23903   0.23990
 Alpha virt. eigenvalues --    0.24753   0.25610   0.26102   0.27055   0.27276

 Mulliken atomic charges:
              1
     1  C   -0.278582
     2  N   -0.807200
     3  C    0.820557
     4  O   -0.637175
     5  C    0.107248
     6  C   -0.518043
     7  C   -0.309224
     8  C   -0.315961
     9  C   -0.352554
    10  C   -0.158153
    11  C   -0.188323
    12  C   -0.349196
    13  C   -0.309297
    14  C   -0.351522
    15  C    0.106690
    16  C   -0.519679
    17  N   -0.782227
    18  C    0.761879
    19  C   -0.592807
    20  O   -0.616765
    21  C    0.810710
    22  O   -0.640696
    23  N   -0.801228
    24  C   -0.277152
    25  N   -0.794531
    26  C    0.771928
    27  C   -0.592083
    28  O   -0.616647
    29  H    0.199359
    30  H    0.163674
    31  H    0.188519
    32  H    0.395914
    33  H    0.171161
    34  H    0.208724
    35  H    0.185799
    36  H    0.169992
    37  H    0.158056
    38  H    0.187264
    39  H    0.177915
    40  H    0.157454
    41  H    0.167224
    42  H    0.178580
    43  H    0.182404
    44  H    0.167754
    45  H    0.173849
    46  H    0.169517
    47  H    0.165609
    48  H    0.201586
    49  H    0.179246
    50  H    0.189588
    51  H    0.156929
    52  H    0.217955
    53  H    0.387854
    54  H    0.208968
    55  H    0.211249
    56  H    0.178425
    57  H    0.397336
    58  H    0.184826
    59  H    0.199235
    60  H    0.165128
    61  H    0.384730
    62  H    0.175491
    63  H    0.209919
    64  H    0.212798
 Sum of Mulliken atomic charges =   0.00000

 Dipole moment (field-independent basis, Debye):
    X=              0.4053    Y=             -1.2549    Z=              4.0703  Tot=              4.2786
 Quadrupole moment (field-independent basis, Debye-Ang):
   XX=           -209.1611   YY=           -155.6913   ZZ=           -173.7966
   XY=             11.4131   XZ=              8.9427   YZ=            -10.7753

 Normal termination of Gaussian 09 at Fri Nov 22 06:58:38 2019.
