 Gaussian 09, Revision A.02,
 Gaussian 09:  EM64L-G09RevA.02 11-Jun-2009

 ------------------------------------------------------------
 #HF/6-31G* SCF=tight Test Pop=MK iop(6/33=2) iop(6/42=6) opt
 ------------------------------------------------------------

 ---------------------
 remark line goes here
 ---------------------
 Symbolic Z-matrix:
 Charge =  0 Multiplicity = 1

 SCF Done:  E(RHF) =  -1295.59788370     A.U. after   14 cycles
 SCF Done:  E(RHF) =  -1295.61681784     A.U. after   13 cycles
 SCF Done:  E(RHF) =  -1295.61840730     A.U. after   16 cycles
 SCF Done:  E(RHF) =  -1295.61865129     A.U. after   13 cycles
 SCF Done:  E(RHF) =  -1295.61944363     A.U. after   12 cycles
 SCF Done:  E(RHF) =  -1295.62058803     A.U. after   13 cycles
 SCF Done:  E(RHF) =  -1295.62061029     A.U. after   16 cycles
 SCF Done:  E(RHF) =  -1295.62129451     A.U. after   16 cycles
 SCF Done:  E(RHF) =  -1295.62160958     A.U. after   16 cycles
 SCF Done:  E(RHF) =  -1295.62141422     A.U. after   13 cycles
 SCF Done:  E(RHF) =  -1295.62208821     A.U. after   11 cycles
 SCF Done:  E(RHF) =  -1295.62208885     A.U. after    9 cycles
 SCF Done:  E(RHF) =  -1295.62208928     A.U. after    9 cycles
 SCF Done:  E(RHF) =  -1295.62208951     A.U. after    9 cycles
 SCF Done:  E(RHF) =  -1295.62208964     A.U. after    8 cycles
 SCF Done:  E(RHF) =  -1295.62208971     A.U. after    8 cycles
 SCF Done:  E(RHF) =  -1295.62208974     A.U. after    8 cycles
 SCF Done:  E(RHF) =  -1295.62208976     A.U. after    8 cycles
 SCF Done:  E(RHF) =  -1295.62208978     A.U. after    8 cycles
 SCF Done:  E(RHF) =  -1295.62208979     A.U. after    7 cycles
 Optimization completed.
    -- Stationary point found.

                         Standard orientation:
 ---------------------------------------------------------------------
 Center     Atomic      Atomic             Coordinates (Angstroms)
 Number     Number       Type             X           Y           Z
 ---------------------------------------------------------------------
      1          6           0       -3.775575    2.886099    0.575419
      2          7           0       -4.123318    1.479697    0.575542
      3          6           0       -4.325923    0.834160   -0.596099
      4          8           0       -4.017150    1.305541   -1.655467
      5          6           0       -4.852699   -0.609440   -0.499343
      6          6           0       -5.459864   -1.024907   -1.843145
      7          6           0       -3.708867   -1.567536   -0.071176
      8          6           0       -2.466344   -1.695650   -0.970340
      9          6           0       -1.363985   -0.628120   -0.822764
     10          6           0       -0.813223   -0.501991    0.577705
     11          6           0        0.297054   -1.038286    1.059182
     12          6           0        1.288122   -1.910438    0.326359
     13          6           0        2.573338   -1.182238   -0.107600
     14          6           0        3.365992   -0.620920    1.079936
     15          6           0        4.767627   -0.020336    0.800931
     16          6           0        5.315151    0.521012    2.131732
     17          7           0        5.639177   -1.081337    0.314431
     18          6           0        6.894534   -0.815791   -0.149727
     19          6           0        7.522536   -1.927008   -0.960270
     20          8           0        7.464225    0.217836    0.065222
     21          6           0        4.633618    1.045433   -0.311006
     22          8           0        4.630798    0.717070   -1.467205
     23          7           0        4.420047    2.321746    0.073380
     24          6           0        4.336338    3.377046   -0.916400
     25          7           0       -5.852069   -0.719039    0.574010
     26          6           0       -7.015632   -0.009426    0.600337
     27          6           0       -8.055531   -0.514505    1.578360
     28          8           0       -7.201522    0.952573   -0.089715
     29          1           0       -4.586244    3.501177    0.200106
     30          1           0       -2.906987    3.046965   -0.045531
     31          1           0       -3.541947    3.184549    1.589314
     32          1           0       -4.613751    1.132268    1.366160
     33          1           0       -4.742059   -0.927903   -2.643006
     34          1           0       -5.789765   -2.058352   -1.785883
     35          1           0       -6.306485   -0.397928   -2.083501
     36          1           0       -4.162454   -2.554903   -0.008789
     37          1           0       -3.403252   -1.310144    0.937575
     38          1           0       -2.019288   -2.658928   -0.740811
     39          1           0       -2.764945   -1.742511   -2.011585
     40          1           0       -1.736031    0.335547   -1.145349
     41          1           0       -0.570775   -0.888586   -1.514616
     42          1           0       -1.401759    0.100873    1.250327
     43          1           0        0.536059   -0.834184    2.091314
     44          1           0        0.828782   -2.342198   -0.555268
     45          1           0        1.555214   -2.747343    0.969599
     46          1           0        3.175225   -1.885042   -0.677179
     47          1           0        2.317998   -0.384713   -0.793672
     48          1           0        3.507497   -1.403597    1.822095
     49          1           0        2.775697    0.154298    1.555445
     50          1           0        5.468567   -0.311605    2.807628
     51          1           0        4.606549    1.195038    2.603074
     52          1           0        6.260427    1.025534    1.998774
     53          1           0        5.176888   -1.832839   -0.143797
     54          1           0        8.595390   -1.800700   -0.961032
     55          1           0        7.162804   -1.855920   -1.982330
     56          1           0        7.267976   -2.907718   -0.574278
     57          1           0        4.665570    2.584578    0.997800
     58          1           0        4.042506    4.292779   -0.420285
     59          1           0        3.591968    3.124440   -1.656851
     60          1           0        5.283500    3.532191   -1.420903
     61          1           0       -5.844729   -1.576336    1.080583
     62          1           0       -8.738369    0.289834    1.809836
     63          1           0       -7.610702   -0.892173    2.492351
     64          1           0       -8.616745   -1.321020    1.115921
 ---------------------------------------------------------------------

 The electronic state is 1-A.
 Alpha  occ. eigenvalues --  -20.53634 -20.52035 -20.51845 -20.51566 -15.59607
 Alpha  occ. eigenvalues --  -15.57888 -15.57552 -15.57518 -11.35957 -11.34243
 Alpha  occ. eigenvalues --  -11.33862 -11.33660 -11.29024 -11.28555 -11.24959
 Alpha  occ. eigenvalues --  -11.24923 -11.24365 -11.23998 -11.23389 -11.22687
 Alpha  occ. eigenvalues --  -11.22552 -11.22506 -11.22349 -11.22234 -11.22029
 Alpha  occ. eigenvalues --  -11.21796 -11.21585 -11.20856  -1.40584  -1.39343
 Alpha  occ. eigenvalues --   -1.38705  -1.38064  -1.25432  -1.23551  -1.22609
 Alpha  occ. eigenvalues --   -1.22096  -1.10763  -1.09267  -1.07187  -1.04220
 Alpha  occ. eigenvalues --   -1.01227  -0.99314  -0.98716  -0.95535  -0.95135
 Alpha  occ. eigenvalues --   -0.94577  -0.92185  -0.87262  -0.85692  -0.82829
 Alpha  occ. eigenvalues --   -0.81339  -0.79500  -0.78769  -0.77206  -0.76883
 Alpha  occ. eigenvalues --   -0.71896  -0.71286  -0.71093  -0.68945  -0.67974
 Alpha  occ. eigenvalues --   -0.66704  -0.65851  -0.64523  -0.63951  -0.63706
 Alpha  occ. eigenvalues --   -0.62586  -0.62328  -0.61766  -0.61403  -0.61151
 Alpha  occ. eigenvalues --   -0.60917  -0.59895  -0.59327  -0.58709  -0.58420
 Alpha  occ. eigenvalues --   -0.58251  -0.57817  -0.56566  -0.56397  -0.56206
 Alpha  occ. eigenvalues --   -0.55486  -0.54847  -0.54738  -0.54589  -0.53953
 Alpha  occ. eigenvalues --   -0.53077  -0.52821  -0.52460  -0.52143  -0.51540
 Alpha  occ. eigenvalues --   -0.51023  -0.50315  -0.49765  -0.49262  -0.48542
 Alpha  occ. eigenvalues --   -0.48346  -0.46920  -0.46395  -0.44544  -0.42863
 Alpha  occ. eigenvalues --   -0.41940  -0.41489  -0.41047  -0.39287  -0.38827
 Alpha  occ. eigenvalues --   -0.38330  -0.38273  -0.34498
 Alpha virt. eigenvalues --    0.17319   0.18804   0.19671   0.19994   0.20236
 Alpha virt. eigenvalues --    0.21615   0.21983   0.23164   0.23251   0.23937
 Alpha virt. eigenvalues --    0.25295   0.25650   0.26549   0.27115   0.27647

 Mulliken atomic charges:
              1
     1  C   -0.279685
     2  N   -0.783497
     3  C    0.822091
     4  O   -0.628318
     5  C    0.102474
     6  C   -0.472732
     7  C   -0.334381
     8  C   -0.311877
     9  C   -0.373898
    10  C   -0.178908
    11  C   -0.177129
    12  C   -0.353452
    13  C   -0.310638
    14  C   -0.329038
    15  C    0.090978
    16  C   -0.509607
    17  N   -0.787281
    18  C    0.767282
    19  C   -0.595707
    20  O   -0.613903
    21  C    0.820489
    22  O   -0.639724
    23  N   -0.805890
    24  C   -0.275627
    25  N   -0.843008
    26  C    0.744750
    27  C   -0.588749
    28  O   -0.592044
    29  H    0.186990
    30  H    0.198425
    31  H    0.162305
    32  H    0.391405
    33  H    0.199051
    34  H    0.143961
    35  H    0.212548
    36  H    0.161166
    37  H    0.182254
    38  H    0.164326
    39  H    0.180133
    40  H    0.213482
    41  H    0.175260
    42  H    0.180340
    43  H    0.169616
    44  H    0.176729
    45  H    0.160318
    46  H    0.151112
    47  H    0.199506
    48  H    0.173055
    49  H    0.185019
    50  H    0.183512
    51  H    0.148142
    52  H    0.226727
    53  H    0.389828
    54  H    0.210961
    55  H    0.209474
    56  H    0.176267
    57  H    0.395409
    58  H    0.164806
    59  H    0.199983
    60  H    0.185323
    61  H    0.382526
    62  H    0.218715
    63  H    0.177176
    64  H    0.201180
 Sum of Mulliken atomic charges =   0.00000

 Dipole moment (field-independent basis, Debye):
    X=             -2.7905    Y=             -4.4732    Z=              6.4209  Tot=              8.3081
 Quadrupole moment (field-independent basis, Debye-Ang):
   XX=           -194.5273   YY=           -155.8554   ZZ=           -173.3858
   XY=             14.1483   XZ=            -17.9044   YZ=              9.8580

 Normal termination of Gaussian 09 at Fri Nov 22 10:02:18 2019.
