 Gaussian 09, Revision A.02,
 Gaussian 09:  EM64L-G09RevA.02 11-Jun-2009

 ------------------------------------------------------------
 #HF/6-31G* SCF=tight Test Pop=MK iop(6/33=2) iop(6/42=6) opt
 ------------------------------------------------------------

 ---------------------
 remark line goes here
 ---------------------
 Symbolic Z-matrix:
 Charge =  0 Multiplicity = 1

 SCF Done:  E(RHF) =  -1295.60220260     A.U. after   14 cycles
 SCF Done:  E(RHF) =  -1295.62052007     A.U. after   13 cycles
 SCF Done:  E(RHF) =  -1295.62288059     A.U. after   16 cycles
 SCF Done:  E(RHF) =  -1295.62461748     A.U. after   13 cycles
 SCF Done:  E(RHF) =  -1295.62548768     A.U. after   13 cycles
 SCF Done:  E(RHF) =  -1295.62531529     A.U. after   15 cycles
 SCF Done:  E(RHF) =  -1295.62652959     A.U. after   13 cycles
 SCF Done:  E(RHF) =  -1295.62662349     A.U. after   12 cycles
 SCF Done:  E(RHF) =  -1295.62687961     A.U. after   11 cycles
 SCF Done:  E(RHF) =  -1295.62693359     A.U. after   12 cycles
 SCF Done:  E(RHF) =  -1295.62708585     A.U. after    9 cycles
 SCF Done:  E(RHF) =  -1295.62708744     A.U. after    9 cycles
 SCF Done:  E(RHF) =  -1295.62708825     A.U. after    9 cycles
 SCF Done:  E(RHF) =  -1295.62708869     A.U. after    9 cycles
 SCF Done:  E(RHF) =  -1295.62708901     A.U. after    8 cycles
 SCF Done:  E(RHF) =  -1295.62708915     A.U. after    8 cycles
 SCF Done:  E(RHF) =  -1295.62708922     A.U. after    8 cycles
 SCF Done:  E(RHF) =  -1295.62708926     A.U. after    7 cycles
 SCF Done:  E(RHF) =  -1295.62708928     A.U. after    7 cycles
 SCF Done:  E(RHF) =  -1295.62708929     A.U. after    7 cycles
 Optimization completed.
    -- Stationary point found.

                         Standard orientation:
 ---------------------------------------------------------------------
 Center     Atomic      Atomic             Coordinates (Angstroms)
 Number     Number       Type             X           Y           Z
 ---------------------------------------------------------------------
      1          6           0       -6.662504    3.254405   -0.260731
      2          7           0       -5.713734    2.166112   -0.388351
      3          6           0       -6.154330    0.918994   -0.651464
      4          8           0       -7.299634    0.689405   -0.936839
      5          6           0       -5.123812   -0.240299   -0.691651
      6          6           0       -5.002614   -0.635414   -2.171765
      7          6           0       -3.742019    0.117784   -0.103453
      8          6           0       -2.719312   -1.023749   -0.107028
      9          6           0       -1.438233   -0.690635    0.678245
     10          6           0       -0.661979    0.479904    0.125714
     11          6           0        0.458579    0.450429   -0.578062
     12          6           0        1.247691   -0.763897   -1.003334
     13          6           0        2.530980   -0.994687   -0.185362
     14          6           0        3.534606    0.158035   -0.303042
     15          6           0        4.932673   -0.100367    0.306828
     16          6           0        4.819394   -0.491629    1.786030
     17          7           0        5.567993   -1.174298   -0.451671
     18          6           0        6.892824   -1.460540   -0.297587
     19          6           0        7.491815   -2.324225   -1.384321
     20          8           0        7.541031   -1.056887    0.628379
     21          6           0        5.732031    1.198368    0.042260
     22          8           0        6.073470    1.462137   -1.080477
     23          7           0        5.930278    2.042688    1.074873
     24          6           0        6.729422    3.237935    0.894131
     25          7           0       -5.717309   -1.374765    0.010748
     26          6           0       -6.202348   -1.255150    1.277131
     27          6           0       -7.091195   -2.388238    1.736792
     28          8           0       -5.947620   -0.315484    1.980545
     29          1           0       -6.112865    4.182318   -0.171240
     30          1           0       -7.301623    3.132311    0.606770
     31          1           0       -7.285306    3.298247   -1.141640
     32          1           0       -4.853831    2.262110    0.096983
     33          1           0       -5.984475   -0.813355   -2.592178
     34          1           0       -4.531405    0.160354   -2.737631
     35          1           0       -4.405141   -1.532166   -2.282976
     36          1           0       -3.341049    0.947607   -0.677874
     37          1           0       -3.877505    0.454587    0.916909
     38          1           0       -3.168248   -1.907565    0.332649
     39          1           0       -2.441681   -1.279646   -1.124962
     40          1           0       -1.706927   -0.472842    1.709785
     41          1           0       -0.814572   -1.576627    0.709254
     42          1           0       -1.082422    1.450952    0.335486
     43          1           0        0.869523    1.397887   -0.889047
     44          1           0        1.513910   -0.653272   -2.052890
     45          1           0        0.634843   -1.655445   -0.939384
     46          1           0        2.989584   -1.919847   -0.522816
     47          1           0        2.256030   -1.145035    0.853347
     48          1           0        3.128091    1.042106    0.177791
     49          1           0        3.675906    0.417436   -1.348372
     50          1           0        4.202504    0.219115    2.327607
     51          1           0        4.352185   -1.463904    1.866448
     52          1           0        5.791166   -0.557471    2.253203
     53          1           0        5.223874   -1.287790   -1.379356
     54          1           0        7.760859   -1.690502   -2.224113
     55          1           0        6.796675   -3.079184   -1.733509
     56          1           0        8.387144   -2.796129   -1.006565
     57          1           0        5.863983    1.678439    1.995439
     58          1           0        6.349707    3.805874    0.057909
     59          1           0        7.770733    3.001773    0.704772
     60          1           0        6.658055    3.839960    1.790545
     61          1           0       -6.189360   -2.032105   -0.568941
     62          1           0       -8.100849   -2.203175    1.382685
     63          1           0       -7.102766   -2.411857    2.816777
     64          1           0       -6.763337   -3.346835    1.351089
 ---------------------------------------------------------------------

 The electronic state is 1-A.
 Alpha  occ. eigenvalues --  -20.52750 -20.52587 -20.51745 -20.51735 -15.58215
 Alpha  occ. eigenvalues --  -15.58038 -15.57999 -15.57957 -11.34915 -11.34706
 Alpha  occ. eigenvalues --  -11.33919 -11.33830 -11.28887 -11.28699 -11.25137
 Alpha  occ. eigenvalues --  -11.25076 -11.23326 -11.23118 -11.23011 -11.22925
 Alpha  occ. eigenvalues --  -11.22910 -11.22799 -11.22798 -11.22676 -11.22643
 Alpha  occ. eigenvalues --  -11.22611 -11.22419 -11.21921  -1.39851  -1.39705
 Alpha  occ. eigenvalues --   -1.38456  -1.38387  -1.24068  -1.23878  -1.22795
 Alpha  occ. eigenvalues --   -1.22776  -1.11185  -1.09447  -1.07446  -1.04502
 Alpha  occ. eigenvalues --   -1.01015  -0.99342  -0.98986  -0.95840  -0.95209
 Alpha  occ. eigenvalues --   -0.94657  -0.92529  -0.87672  -0.85954  -0.82306
 Alpha  occ. eigenvalues --   -0.80468  -0.79787  -0.79750  -0.76858  -0.76627
 Alpha  occ. eigenvalues --   -0.72231  -0.71892  -0.71147  -0.68793  -0.68499
 Alpha  occ. eigenvalues --   -0.67146  -0.65500  -0.64546  -0.63893  -0.63631
 Alpha  occ. eigenvalues --   -0.63150  -0.62558  -0.62102  -0.61762  -0.61504
 Alpha  occ. eigenvalues --   -0.61265  -0.59625  -0.59605  -0.58957  -0.58406
 Alpha  occ. eigenvalues --   -0.57783  -0.57268  -0.57113  -0.56345  -0.55739
 Alpha  occ. eigenvalues --   -0.55367  -0.55064  -0.54788  -0.54590  -0.54090
 Alpha  occ. eigenvalues --   -0.53891  -0.53149  -0.52789  -0.52068  -0.51741
 Alpha  occ. eigenvalues --   -0.51135  -0.50493  -0.50322  -0.49082  -0.48391
 Alpha  occ. eigenvalues --   -0.47989  -0.47766  -0.47513  -0.45071  -0.41884
 Alpha  occ. eigenvalues --   -0.41817  -0.41699  -0.41551  -0.39339  -0.39258
 Alpha  occ. eigenvalues --   -0.38290  -0.38279  -0.35014
 Alpha virt. eigenvalues --    0.17042   0.19087   0.19366   0.20957   0.21303
 Alpha virt. eigenvalues --    0.21856   0.22074   0.23096   0.23575   0.23986
 Alpha virt. eigenvalues --    0.25058   0.25528   0.26149   0.26690   0.27164

 Mulliken atomic charges:
              1
     1  C   -0.277356
     2  N   -0.801877
     3  C    0.817518
     4  O   -0.640568
     5  C    0.098236
     6  C   -0.516252
     7  C   -0.349550
     8  C   -0.302704
     9  C   -0.355129
    10  C   -0.171209
    11  C   -0.176285
    12  C   -0.352599
    13  C   -0.309190
    14  C   -0.351320
    15  C    0.104607
    16  C   -0.519913
    17  N   -0.780154
    18  C    0.761096
    19  C   -0.593562
    20  O   -0.614439
    21  C    0.810152
    22  O   -0.642165
    23  N   -0.801118
    24  C   -0.276908
    25  N   -0.780000
    26  C    0.759034
    27  C   -0.592558
    28  O   -0.617184
    29  H    0.165259
    30  H    0.184997
    31  H    0.199293
    32  H    0.397377
    33  H    0.202316
    34  H    0.184368
    35  H    0.180625
    36  H    0.165307
    37  H    0.209167
    38  H    0.178565
    39  H    0.160762
    40  H    0.174067
    41  H    0.172082
    42  H    0.171821
    43  H    0.179049
    44  H    0.166425
    45  H    0.174582
    46  H    0.167868
    47  H    0.172075
    48  H    0.187827
    49  H    0.190660
    50  H    0.158805
    51  H    0.190545
    52  H    0.218627
    53  H    0.384409
    54  H    0.208511
    55  H    0.179039
    56  H    0.212101
    57  H    0.398052
    58  H    0.198865
    59  H    0.185003
    60  H    0.165735
    61  H    0.386708
    62  H    0.210177
    63  H    0.212015
    64  H    0.178314
 Sum of Mulliken atomic charges =   0.00000

 Dipole moment (field-independent basis, Debye):
    X=             -0.5462    Y=             -1.8214    Z=             -0.4774  Tot=              1.9606
 Quadrupole moment (field-independent basis, Debye-Ang):
   XX=           -225.7780   YY=           -152.1665   ZZ=           -173.3225
   XY=              7.8886   XZ=              4.4167   YZ=             10.8336

 Normal termination of Gaussian 09 at Fri Nov 22 00:28:10 2019.
