 Gaussian 09, Revision A.02,
 Gaussian 09:  EM64L-G09RevA.02 11-Jun-2009

 ---------------------------------
 #SP HF/6-31G* Geom=(ModRedundant)
 ---------------------------------

 ------------
 paramfit run
 ------------
 Symbolic Z-matrix:
 Charge =  0 Multiplicity = 1

                         Standard orientation:
 ---------------------------------------------------------------------
 Center     Atomic      Atomic             Coordinates (Angstroms)
 Number     Number       Type             X           Y           Z
 ---------------------------------------------------------------------
      1          6    20001001       -7.904867   -1.557694   -0.996721
      2          7    20001014       -6.549042   -1.087402   -0.802269
      3          6    20001002       -6.104828   -0.805061    0.444754
      4          8    20001024       -6.701697   -1.134003    1.432322
      5          6    90000001       -4.713493   -0.154104    0.543896
      6          6    90000002       -4.555817    0.513515    1.914029
      7          6    90000002       -3.607778   -1.216636    0.298901
      8          6    90000002       -2.493662   -0.914156   -0.719373
      9          6    90000002       -1.299830   -0.063713   -0.241722
     10          6    20001004       -0.579298   -0.634224    0.957290
     11          6    20001004        0.532979   -1.350853    0.963695
     12          6    90000002        1.357474   -1.777001   -0.227253
     13          6    90000002        2.636687   -0.948011   -0.441628
     14          6    90000002        3.606590   -1.038109    0.744157
     15          6    90000002        5.009667   -0.396600    0.587672
     16          6    90000002        5.751323   -0.569527    1.923147
     17          7    20001014        5.729189   -1.105021   -0.462070
     18          6    20001002        6.938979   -0.667185   -0.917879
     19          6    20001001        7.375918   -1.260828   -2.237529
     20          8    20001024        7.610536    0.128199   -0.321625
     21          6    20001002        4.831571    1.073513    0.145212
     22          8    20001024        4.666079    1.341516   -1.014408
     23          7    20001014        4.767550    2.011669    1.114616
     24          6    20001001        4.652630    3.413204    0.767207
     25          7    20001014       -4.529701    0.829594   -0.533133
     26          6    20001002       -5.324033    1.925279   -0.701006
     27          6    20001001       -4.767784    2.986794   -1.627230
     28          8    20001024       -6.390535    2.038618   -0.166339
     29          1    20001035       -8.635439   -0.798293   -0.742706
     30          1    20001035       -8.082453   -2.425271   -0.378258
     31          1    20001035       -8.028192   -1.837036   -2.035524
     32          1    20001029       -6.129932   -0.582967   -1.548042
     33          1    20001034       -4.709889   -0.194516    2.713958
     34          1    20001034       -3.557650    0.932691    1.998834
     35          1    20001034       -5.281262    1.305088    2.032638
     36          1    20001034       -4.128115   -2.105550   -0.050819
     37          1    20001034       -3.165321   -1.479596    1.254603
     38          1    20001034       -2.101591   -1.874837   -1.040296
     39          1    20001034       -2.916133   -0.450422   -1.604723
     40          1    20001034       -1.628543    0.941493   -0.011783
     41          1    20001034       -0.617412    0.028941   -1.079311
     42          1    20001033       -1.034689   -0.420235    1.910674
     43          1    20001033        0.907493   -1.671281    1.923292
     44          1    20001034        0.764684   -1.725991   -1.132497
     45          1    20001034        1.630391   -2.824135   -0.102273
     46          1    20001034        3.109047   -1.299366   -1.354754
     47          1    20001034        2.367486    0.084067   -0.623770
     48          1    20001034        3.770675   -2.083234    0.997774
     49          1    20001034        3.140814   -0.578613    1.608024
     50          1    20001034        5.916486   -1.626957    2.093865
     51          1    20001034        5.160171   -0.195024    2.752404
     52          1    20001034        6.711559   -0.075988    1.912873
     53          1    20001029        5.157560   -1.537847   -1.150993
     54          1    20001034        8.446968   -1.164818   -2.330775
     55          1    20001034        6.904903   -0.702389   -3.040906
     56          1    20001034        7.090209   -2.302954   -2.330945
     57          1    20001029        5.141127    1.794300    2.008205
     58          1    20001035        4.494618    3.982098    1.674022
     59          1    20001035        3.808620    3.557860    0.108915
     60          1    20001035        5.543902    3.778590    0.267328
     61          1    20001029       -3.609146    0.888769   -0.908133
     62          1    20001034       -5.584056    3.590025   -1.997074
     63          1    20001034       -4.222177    2.559254   -2.460940
     64          1    20001034       -4.090325    3.625999   -1.070213
 ---------------------------------------------------------------------

 SCF Done:  E(RHF) =  -1295.60616290     A.U. after   14 cycles

 The electronic state is 1-A.
 Alpha  occ. eigenvalues --  -20.53324 -20.52527 -20.52241 -20.51535 -15.58972
 Alpha  occ. eigenvalues --  -15.58517 -15.58058 -15.57052 -11.35563 -11.34735
 Alpha  occ. eigenvalues --  -11.34311 -11.33502 -11.29168 -11.28800 -11.25620
 Alpha  occ. eigenvalues --  -11.24538 -11.24341 -11.24217 -11.24129 -11.24118
 Alpha  occ. eigenvalues --  -11.23678 -11.23669 -11.23599 -11.23491 -11.23280
 Alpha  occ. eigenvalues --  -11.22952 -11.22291 -11.20754  -1.40257  -1.39930
 Alpha  occ. eigenvalues --   -1.38657  -1.38287  -1.25300  -1.24097  -1.23231
 Alpha  occ. eigenvalues --   -1.21680  -1.11948  -1.09779  -1.07701  -1.05228
 Alpha  occ. eigenvalues --   -1.01823  -0.99915  -0.99304  -0.95977  -0.95291
 Alpha  occ. eigenvalues --   -0.95110  -0.92809  -0.87439  -0.86178  -0.83447
 Alpha  occ. eigenvalues --   -0.81709  -0.80544  -0.80036  -0.77460  -0.76746
 Alpha  occ. eigenvalues --   -0.73252  -0.71974  -0.71084  -0.69034  -0.68784
 Alpha  occ. eigenvalues --   -0.67657  -0.65175  -0.65105  -0.64431  -0.63291
 Alpha  occ. eigenvalues --   -0.62693  -0.62409  -0.62071  -0.61939  -0.61922
 Alpha  occ. eigenvalues --   -0.61294  -0.60296  -0.59774  -0.59244  -0.59035
 Alpha  occ. eigenvalues --   -0.58703  -0.57797  -0.57197  -0.56966  -0.56576
 Alpha  occ. eigenvalues --   -0.55902  -0.55501  -0.55303  -0.54591  -0.54262
 Alpha  occ. eigenvalues --   -0.53789  -0.53527  -0.52852  -0.52505  -0.52258
 Alpha  occ. eigenvalues --   -0.51620  -0.50577  -0.50342  -0.49776  -0.49392
 Alpha  occ. eigenvalues --   -0.49295  -0.47260  -0.47137  -0.45951  -0.42648
 Alpha  occ. eigenvalues --   -0.42105  -0.41884  -0.41557  -0.39419  -0.38900
 Alpha  occ. eigenvalues --   -0.38781  -0.37851  -0.35891
 Alpha virt. eigenvalues --    0.15882   0.18666   0.19107   0.19798   0.21017
 Alpha virt. eigenvalues --    0.21232   0.21547   0.22396   0.22536   0.23314
 Alpha virt. eigenvalues --    0.24516   0.25275   0.26141   0.26655   0.26836

 Mulliken atomic charges:
              1
     1  C   -0.278056
     2  N   -0.779572
     3  C    0.790533
     4  O   -0.615694
     5  C    0.142961
     6  C   -0.477225
     7  C   -0.352306
     8  C   -0.360794
     9  C   -0.358452
    10  C   -0.175352
    11  C   -0.170255
    12  C   -0.357412
    13  C   -0.310933
    14  C   -0.330183
    15  C    0.090851
    16  C   -0.510107
    17  N   -0.787146
    18  C    0.767197
    19  C   -0.595876
    20  O   -0.613052
    21  C    0.820057
    22  O   -0.640582
    23  N   -0.806204
    24  C   -0.275228
    25  N   -0.871433
    26  C    0.747247
    27  C   -0.591895
    28  O   -0.592609
    29  H    0.185053
    30  H    0.198297
    31  H    0.161279
    32  H    0.389338
    33  H    0.196631
    34  H    0.142857
    35  H    0.210476
    36  H    0.199173
    37  H    0.195522
    38  H    0.190027
    39  H    0.160436
    40  H    0.164267
    41  H    0.182428
    42  H    0.183622
    43  H    0.180588
    44  H    0.174534
    45  H    0.167817
    46  H    0.153962
    47  H    0.195606
    48  H    0.176225
    49  H    0.185049
    50  H    0.185301
    51  H    0.149189
    52  H    0.227858
    53  H    0.389320
    54  H    0.212540
    55  H    0.208677
    56  H    0.177076
    57  H    0.396733
    58  H    0.166306
    59  H    0.195869
    60  H    0.186591
    61  H    0.408499
    62  H    0.218566
    63  H    0.175482
    64  H    0.200326
 Sum of Mulliken atomic charges =   0.00000

 Dipole moment (field-independent basis, Debye):
    X=              3.0199    Y=             -1.1652    Z=             -2.5524  Tot=              4.1222
 Quadrupole moment (field-independent basis, Debye-Ang):
   XX=           -245.4367   YY=           -165.3338   ZZ=           -163.8484
   XY=             -9.7402   XZ=             33.4781   YZ=              8.8893

 Normal termination of Gaussian 09 at Thu Dec  5 16:36:09 2019.
