 Gaussian 09, Revision A.02,
 Gaussian 09:  EM64L-G09RevA.02 11-Jun-2009

 ---------------------------------
 #SP HF/6-31G* Geom=(ModRedundant)
 ---------------------------------

 ------------
 paramfit run
 ------------
 Symbolic Z-matrix:
 Charge =  0 Multiplicity = 1

                         Standard orientation:
 ---------------------------------------------------------------------
 Center     Atomic      Atomic             Coordinates (Angstroms)
 Number     Number       Type             X           Y           Z
 ---------------------------------------------------------------------
      1          6    20001001        5.776554    2.564261   -1.941814
      2          7    20001014        5.464661    1.249765   -1.420212
      3          6    20001002        4.820181    1.128885   -0.236091
      4          8    20001024        4.290053    2.057755    0.307886
      5          6    90000001        4.678258   -0.298415    0.322531
      6          6    90000002        4.368609   -0.234191    1.821809
      7          6    90000002        3.575081   -1.068516   -0.453065
      8          6    90000002        2.355212   -1.604027    0.318156
      9          6    90000002        1.200304   -0.622610    0.600374
     10          6    20001004        0.620121    0.016793   -0.639315
     11          6    20001004       -0.470545   -0.342509   -1.296664
     12          6    90000002       -1.405432   -1.482409   -0.970521
     13          6    90000002       -2.716717   -1.051331   -0.289149
     14          6    90000002       -3.556089   -0.109101   -1.162403
     15          6    90000002       -4.980684    0.260507   -0.673969
     16          6    90000002       -5.575840    1.253358   -1.685643
     17          7    20001014       -5.790728   -0.949735   -0.647999
     18          6    20001002       -7.050055   -0.953864   -0.121563
     19          6    20001001       -7.609507   -2.324793    0.182366
     20          8    20001024       -7.672173    0.050506    0.086653
     21          6    20001002       -4.879701    0.806507    0.768394
     22          8    20001024       -4.841142    0.050150    1.701329
     23          7    20001014       -4.734528    2.140652    0.919930
     24          6    20001001       -4.685082    2.723376    2.245142
     25          7    20001014        5.907972   -1.067603    0.082563
     26          6    20001002        7.130569   -0.711831    0.570778
     27          6    20001001        8.184318   -1.798626    0.519709
     28          8    20001024        7.362099    0.383387    0.998600
     29          1    20001035        6.498146    3.083439   -1.321565
     30          1    20001035        4.876699    3.159548   -1.992976
     31          1    20001035        6.180082    2.453085   -2.940392
     32          1    20001029        6.066654    0.502706   -1.676715
     33          1    20001034        3.479099    0.346534    2.012761
     34          1    20001034        4.224168   -1.240247    2.204205
     35          1    20001034        5.184696    0.231251    2.355000
     36          1    20001034        4.074365   -1.926558   -0.897698
     37          1    20001034        3.239820   -0.449873   -1.279600
     38          1    20001034        1.951686   -2.420436   -0.273672
     39          1    20001034        2.673795   -2.042407    1.258211
     40          1    20001034        1.530461    0.154220    1.277792
     41          1    20001034        0.432784   -1.175504    1.130520
     42          1    20001033        1.167641    0.865172   -1.016924
     43          1    20001033       -0.736663    0.239082   -2.165394
     44          1    20001034       -0.911096   -2.202432   -0.329690
     45          1    20001034       -1.642364   -2.010425   -1.893374
     46          1    20001034       -3.274113   -1.951556   -0.045676
     47          1    20001034       -2.489113   -0.577187    0.656480
     48          1    20001034       -3.671476   -0.542479   -2.153565
     49          1    20001034       -3.012579    0.819538   -1.291140
     50          1    20001034       -5.700659    0.747423   -2.635922
     51          1    20001034       -4.909512    2.093796   -1.850121
     52          1    20001034       -6.541856    1.615860   -1.367613
     53          1    20001029       -5.285038   -1.796572   -0.522074
     54          1    20001034       -8.686190   -2.264588    0.229170
     55          1    20001034       -7.236076   -2.643878    1.150797
     56          1    20001034       -7.313755   -3.059822   -0.558340
     57          1    20001029       -5.008686    2.733862    0.172770
     58          1    20001035       -4.445383    3.774436    2.151661
     59          1    20001035       -3.917196    2.237409    2.828934
     60          1    20001035       -5.630779    2.617959    2.766967
     61          1    20001029        5.777314   -2.033204   -0.122594
     62          1    20001034        9.161549   -1.338986    0.546631
     63          1    20001034        8.094921   -2.415820   -0.367212
     64          1    20001034        8.078970   -2.438037    1.390259
 ---------------------------------------------------------------------

 SCF Done:  E(RHF) =  -1295.60984661     A.U. after   14 cycles

 The electronic state is 1-A.
 Alpha  occ. eigenvalues --  -20.53561 -20.52057 -20.51702 -20.51594 -15.59504
 Alpha  occ. eigenvalues --  -15.57865 -15.57534 -15.57228 -11.35813 -11.34268
 Alpha  occ. eigenvalues --  -11.33684 -11.33673 -11.28894 -11.28561 -11.24938
 Alpha  occ. eigenvalues --  -11.24699 -11.24290 -11.23850 -11.23409 -11.23046
 Alpha  occ. eigenvalues --  -11.22687 -11.22548 -11.22449 -11.22381 -11.22333
 Alpha  occ. eigenvalues --  -11.22175 -11.21759 -11.20718  -1.40486  -1.39373
 Alpha  occ. eigenvalues --   -1.38481  -1.38095  -1.25404  -1.23557  -1.22581
 Alpha  occ. eigenvalues --   -1.21839  -1.10999  -1.09391  -1.07210  -1.04272
 Alpha  occ. eigenvalues --   -1.01253  -0.99274  -0.98743  -0.95523  -0.95232
 Alpha  occ. eigenvalues --   -0.94632  -0.92477  -0.87461  -0.85686  -0.82468
 Alpha  occ. eigenvalues --   -0.81265  -0.79592  -0.79361  -0.76929  -0.76859
 Alpha  occ. eigenvalues --   -0.72088  -0.71320  -0.70709  -0.69154  -0.68049
 Alpha  occ. eigenvalues --   -0.66922  -0.65479  -0.64575  -0.63947  -0.63567
 Alpha  occ. eigenvalues --   -0.62651  -0.62175  -0.62007  -0.61463  -0.61310
 Alpha  occ. eigenvalues --   -0.60988  -0.59796  -0.59365  -0.58923  -0.58681
 Alpha  occ. eigenvalues --   -0.58230  -0.57590  -0.56550  -0.56250  -0.55978
 Alpha  occ. eigenvalues --   -0.55679  -0.55028  -0.54753  -0.54459  -0.54097
 Alpha  occ. eigenvalues --   -0.53215  -0.53058  -0.52367  -0.52119  -0.51344
 Alpha  occ. eigenvalues --   -0.51060  -0.50629  -0.49816  -0.48860  -0.48688
 Alpha  occ. eigenvalues --   -0.48196  -0.47285  -0.46441  -0.44672  -0.42845
 Alpha  occ. eigenvalues --   -0.42052  -0.41510  -0.41072  -0.39044  -0.38831
 Alpha  occ. eigenvalues --   -0.38269  -0.38049  -0.34670
 Alpha virt. eigenvalues --    0.17006   0.18871   0.19653   0.19907   0.21042
 Alpha virt. eigenvalues --    0.21589   0.21980   0.23018   0.23501   0.24418
 Alpha virt. eigenvalues --    0.25026   0.25543   0.26295   0.26472   0.27432

 Mulliken atomic charges:
              1
     1  C   -0.278275
     2  N   -0.779186
     3  C    0.793891
     4  O   -0.620643
     5  C    0.146489
     6  C   -0.484562
     7  C   -0.360210
     8  C   -0.315866
     9  C   -0.355701
    10  C   -0.178677
    11  C   -0.176629
    12  C   -0.354327
    13  C   -0.310233
    14  C   -0.329699
    15  C    0.090794
    16  C   -0.509937
    17  N   -0.787480
    18  C    0.767386
    19  C   -0.595688
    20  O   -0.613563
    21  C    0.820551
    22  O   -0.640521
    23  N   -0.805393
    24  C   -0.275446
    25  N   -0.854239
    26  C    0.743818
    27  C   -0.589119
    28  O   -0.591273
    29  H    0.185534
    30  H    0.197067
    31  H    0.162024
    32  H    0.390239
    33  H    0.200114
    34  H    0.147114
    35  H    0.213949
    36  H    0.156305
    37  H    0.206488
    38  H    0.168395
    39  H    0.167717
    40  H    0.191072
    41  H    0.174683
    42  H    0.190532
    43  H    0.174572
    44  H    0.174234
    45  H    0.161681
    46  H    0.150677
    47  H    0.198450
    48  H    0.173614
    49  H    0.186976
    50  H    0.183631
    51  H    0.149768
    52  H    0.226628
    53  H    0.389355
    54  H    0.211327
    55  H    0.208932
    56  H    0.176193
    57  H    0.395939
    58  H    0.166388
    59  H    0.198577
    60  H    0.184550
    61  H    0.384744
    62  H    0.218623
    63  H    0.176788
    64  H    0.200858
 Sum of Mulliken atomic charges =   0.00000

 Dipole moment (field-independent basis, Debye):
    X=              3.0556    Y=             -5.2954    Z=             -4.5404  Tot=              7.6153
 Quadrupole moment (field-independent basis, Debye-Ang):
   XX=           -190.8920   YY=           -156.4227   ZZ=           -172.5932
   XY=            -26.2998   XZ=             -5.5033   YZ=             -4.2629

 Normal termination of Gaussian 09 at Thu Dec  5 16:29:32 2019.
