 Gaussian 09, Revision A.02,
 Gaussian 09:  EM64L-G09RevA.02 11-Jun-2009

 ---------------------------------
 #SP HF/6-31G* Geom=(ModRedundant)
 ---------------------------------

 ------------
 paramfit run
 ------------
 Symbolic Z-matrix:
 Charge =  0 Multiplicity = 1

                         Standard orientation:
 ---------------------------------------------------------------------
 Center     Atomic      Atomic             Coordinates (Angstroms)
 Number     Number       Type             X           Y           Z
 ---------------------------------------------------------------------
      1          6    20001001        4.212465    0.592766    3.111963
      2          7    20001014        4.139470    0.262771    1.703766
      3          6    20001002        5.048942   -0.579268    1.159763
      4          8    20001024        5.787953   -1.249274    1.826621
      5          6    90000001        4.999892   -0.743027   -0.369996
      6          6    90000002        6.327965   -1.323845   -0.866700
      7          6    90000002        3.800073   -1.642891   -0.772840
      8          6    90000002        2.638980   -1.828574    0.220647
      9          6    90000002        1.553881   -0.734398    0.265133
     10          6    20001004        0.883995   -0.478519   -1.064550
     11          6    20001004       -0.276651   -0.952976   -1.487101
     12          6    90000002       -1.219137   -1.869372   -0.744341
     13          6    90000002       -2.443009   -1.161370   -0.135708
     14          6    90000002       -3.324695   -0.486810   -1.195196
     15          6    90000002       -4.681820    0.110006   -0.740588
     16          6    90000002       -5.331693    0.773128   -1.965899
     17          7    20001014       -5.531094   -0.975221   -0.268836
     18          6    20001002       -6.734391   -0.731479    0.327591
     19          6    20001001       -7.314241   -1.898418    1.093641
     20          8    20001024       -7.295570    0.326225    0.253553
     21          6    20001002       -4.424599    1.072213    0.441239
     22          8    20001024       -4.326902    0.645127    1.560159
     23          7    20001014       -4.215310    2.374142    0.149414
     24          6    20001001       -4.019017    3.337861    1.212860
     25          7    20001014        4.728963    0.549707   -1.015648
     26          6    20001002        5.536316    1.641678   -0.891342
     27          6    20001001        5.285852    2.744448   -1.898955
     28          8    20001024        6.375706    1.731578   -0.040764
     29          1    20001035        5.105661    1.159943    3.347463
     30          1    20001035        4.216633   -0.313622    3.699473
     31          1    20001035        3.339869    1.177011    3.375758
     32          1    20001029        3.742887    0.941058    1.096366
     33          1    20001034        6.548768   -2.263427   -0.383623
     34          1    20001034        6.274660   -1.480796   -1.939902
     35          1    20001034        7.139962   -0.645111   -0.650118
     36          1    20001034        4.222300   -2.627889   -0.959187
     37          1    20001034        3.412028   -1.293453   -1.724467
     38          1    20001034        2.150767   -2.760813   -0.048051
     39          1    20001034        3.027974   -1.970586    1.223587
     40          1    20001034        1.975678    0.191963    0.632974
     41          1    20001034        0.819390   -1.041779    1.001254
     42          1    20001033        1.425216    0.171047   -1.733323
     43          1    20001033       -0.601296   -0.656401   -2.472195
     44          1    20001034       -0.694203   -2.383464    0.051661
     45          1    20001034       -1.561914   -2.642960   -1.430387
     46          1    20001034       -3.008673   -1.901400    0.423536
     47          1    20001034       -2.109406   -0.431079    0.589697
     48          1    20001034       -3.549412   -1.200115   -1.985279
     49          1    20001034       -2.760943    0.316974   -1.653961
     50          1    20001034       -5.564689    0.004498   -2.693567
     51          1    20001034       -4.652476    1.474075   -2.439942
     52          1    20001034       -6.248962    1.279695   -1.705616
     53          1    20001029       -5.048246   -1.771405    0.079963
     54          1    20001034       -8.378646   -1.755890    1.202204
     55          1    20001034       -6.863482   -1.922128    2.081254
     56          1    20001034       -7.117757   -2.846163    0.604198
     57          1    20001029       -4.536043    2.720313   -0.723859
     58          1    20001035       -3.749536    4.288656    0.772077
     59          1    20001035       -3.218458    3.009673    1.859407
     60          1    20001035       -4.914582    3.463559    1.812790
     61          1    20001029        4.159201    0.511212   -1.831391
     62          1    20001034        5.666003    3.673998   -1.500966
     63          1    20001034        4.233543    2.851857   -2.136985
     64          1    20001034        5.819821    2.516991   -2.815985
 ---------------------------------------------------------------------

 SCF Done:  E(RHF) =  -1295.60946256     A.U. after   14 cycles

 The electronic state is 1-A.
 Alpha  occ. eigenvalues --  -20.53590 -20.52421 -20.52115 -20.51770 -15.59526
 Alpha  occ. eigenvalues --  -15.58435 -15.57941 -15.57061 -11.35836 -11.34625
 Alpha  occ. eigenvalues --  -11.34195 -11.33679 -11.29060 -11.28932 -11.25547
 Alpha  occ. eigenvalues --  -11.24714 -11.24330 -11.23975 -11.23904 -11.23376
 Alpha  occ. eigenvalues --  -11.23276 -11.23190 -11.23010 -11.22825 -11.22772
 Alpha  occ. eigenvalues --  -11.22715 -11.22247 -11.20863  -1.40511  -1.39814
 Alpha  occ. eigenvalues --   -1.38542  -1.38542  -1.25412  -1.23982  -1.23144
 Alpha  occ. eigenvalues --   -1.21959  -1.11466  -1.09536  -1.07685  -1.04755
 Alpha  occ. eigenvalues --   -1.01590  -0.99679  -0.99132  -0.95655  -0.95381
 Alpha  occ. eigenvalues --   -0.95057  -0.92565  -0.87228  -0.86001  -0.83588
 Alpha  occ. eigenvalues --   -0.81999  -0.79957  -0.79268  -0.77362  -0.77136
 Alpha  occ. eigenvalues --   -0.72717  -0.71792  -0.71112  -0.68842  -0.68569
 Alpha  occ. eigenvalues --   -0.67459  -0.65585  -0.65066  -0.64478  -0.64196
 Alpha  occ. eigenvalues --   -0.62618  -0.62430  -0.61940  -0.61800  -0.61477
 Alpha  occ. eigenvalues --   -0.60670  -0.59975  -0.59278  -0.59123  -0.59026
 Alpha  occ. eigenvalues --   -0.58726  -0.57891  -0.57034  -0.56882  -0.56374
 Alpha  occ. eigenvalues --   -0.55608  -0.55491  -0.55222  -0.54815  -0.54382
 Alpha  occ. eigenvalues --   -0.53694  -0.53115  -0.52780  -0.52203  -0.52057
 Alpha  occ. eigenvalues --   -0.51221  -0.50547  -0.50231  -0.49593  -0.49169
 Alpha  occ. eigenvalues --   -0.48431  -0.47355  -0.46935  -0.45500  -0.42792
 Alpha  occ. eigenvalues --   -0.41987  -0.41944  -0.41449  -0.39315  -0.39053
 Alpha  occ. eigenvalues --   -0.38793  -0.38084  -0.35486
 Alpha virt. eigenvalues --    0.16195   0.18337   0.18996   0.19215   0.20704
 Alpha virt. eigenvalues --    0.21155   0.21520   0.22434   0.22970   0.23849
 Alpha virt. eigenvalues --    0.24576   0.25599   0.25921   0.26746   0.27228

 Mulliken atomic charges:
              1
     1  C   -0.277940
     2  N   -0.777079
     3  C    0.791379
     4  O   -0.620391
     5  C    0.129023
     6  C   -0.475810
     7  C   -0.343511
     8  C   -0.320057
     9  C   -0.337130
    10  C   -0.173282
    11  C   -0.171663
    12  C   -0.356467
    13  C   -0.311363
    14  C   -0.329434
    15  C    0.091221
    16  C   -0.509699
    17  N   -0.787394
    18  C    0.767084
    19  C   -0.595846
    20  O   -0.613545
    21  C    0.820116
    22  O   -0.639133
    23  N   -0.806708
    24  C   -0.275283
    25  N   -0.847950
    26  C    0.743863
    27  C   -0.589699
    28  O   -0.590764
    29  H    0.186131
    30  H    0.197240
    31  H    0.162758
    32  H    0.395264
    33  H    0.197173
    34  H    0.145248
    35  H    0.211489
    36  H    0.192012
    37  H    0.159435
    38  H    0.167820
    39  H    0.199925
    40  H    0.158580
    41  H    0.177835
    42  H    0.154220
    43  H    0.173365
    44  H    0.180377
    45  H    0.164983
    46  H    0.154350
    47  H    0.197182
    48  H    0.175099
    49  H    0.182938
    50  H    0.184779
    51  H    0.147633
    52  H    0.227673
    53  H    0.389913
    54  H    0.212117
    55  H    0.209533
    56  H    0.177042
    57  H    0.395908
    58  H    0.164795
    59  H    0.197107
    60  H    0.186824
    61  H    0.385259
    62  H    0.218736
    63  H    0.175758
    64  H    0.200963
 Sum of Mulliken atomic charges =   0.00000

 Dipole moment (field-independent basis, Debye):
    X=             -2.3680    Y=              0.7896    Z=             -5.9803  Tot=              6.4803
 Quadrupole moment (field-independent basis, Debye-Ang):
   XX=           -240.9241   YY=           -157.1967   ZZ=           -168.5613
   XY=             15.1326   XZ=            -14.7266   YZ=             -2.6162

 Normal termination of Gaussian 09 at Thu Dec  5 16:42:27 2019.
