 Gaussian 09, Revision A.02,
 Gaussian 09:  EM64L-G09RevA.02 11-Jun-2009

 ---------------------------------
 #SP HF/6-31G* Geom=(ModRedundant)
 ---------------------------------

 ------------
 paramfit run
 ------------
 Symbolic Z-matrix:
 Charge =  0 Multiplicity = 1

                         Standard orientation:
 ---------------------------------------------------------------------
 Center     Atomic      Atomic             Coordinates (Angstroms)
 Number     Number       Type             X           Y           Z
 ---------------------------------------------------------------------
      1          6    20001001       -7.695144   -2.218075    0.488735
      2          7    20001014       -6.574474   -1.466434   -0.036985
      3          6    20001002       -5.685805   -0.897781    0.810960
      4          8    20001024       -5.646101   -1.166496    1.979703
      5          6    90000001       -4.625245    0.019387    0.175822
      6          6    90000002       -4.018822    0.925078    1.252769
      7          6    90000002       -3.535419   -0.832691   -0.529758
      8          6    90000002       -2.369672   -0.117759   -1.236537
      9          6    90000002       -1.178500    0.336700   -0.369811
     10          6    20001004       -0.526546   -0.779073    0.412675
     11          6    20001004        0.566814   -1.453736    0.096204
     12          6    90000002        1.433618   -1.275760   -1.127205
     13          6    90000002        2.740690   -0.504117   -0.870899
     14          6    90000002        3.653805   -1.206017    0.143238
     15          6    90000002        5.077480   -0.631271    0.361090
     16          6    90000002        5.753921   -1.468885    1.458487
     17          7    20001014        5.826325   -0.763725   -0.881173
     18          6    20001002        7.065553   -0.211066   -1.029285
     19          6    20001001        7.547082   -0.099051   -2.457706
     20          8    20001024        7.728472    0.159746   -0.100748
     21          6    20001002        4.954777    0.872924    0.694362
     22          8    20001024        4.848116    1.682226   -0.187444
     23          7    20001014        4.869705    1.216544    1.997691
     24          6    20001001        4.804173    2.611701    2.381673
     25          7    20001014       -5.221836    0.825203   -0.899432
     26          6    20001002       -6.249549    1.700841   -0.707764
     27          6    20001001       -6.479740    2.679825   -1.840336
     28          8    20001024       -6.931142    1.691916    0.277879
     29          1    20001035       -8.386561   -1.584204    1.031965
     30          1    20001035       -7.337222   -2.987375    1.157161
     31          1    20001035       -8.215340   -2.686293   -0.337413
     32          1    20001029       -6.695824   -1.022271   -0.916916
     33          1    20001034       -3.596296    0.344975    2.058924
     34          1    20001034       -3.239490    1.539143    0.811404
     35          1    20001034       -4.777389    1.568330    1.674349
     36          1    20001034       -4.060651   -1.412361   -1.285626
     37          1    20001034       -3.142854   -1.549468    0.184669
     38          1    20001034       -1.986701   -0.813254   -1.977644
     39          1    20001034       -2.740628    0.738377   -1.790429
     40          1    20001034       -1.493032    1.112861    0.315760
     41          1    20001034       -0.457052    0.798935   -1.034406
     42          1    20001033       -1.019122   -1.041010    1.335103
     43          1    20001033        0.889971   -2.219517    0.783888
     44          1    20001034        0.883563   -0.761738   -1.906106
     45          1    20001034        1.675448   -2.260145   -1.526079
     46          1    20001034        3.245108   -0.382213   -1.825401
     47          1    20001034        2.504784    0.495049   -0.529072
     48          1    20001034        3.781204   -2.247087   -0.145688
     49          1    20001034        3.160774   -1.209922    1.108254
     50          1    20001034        5.885832   -2.480036    1.091397
     51          1    20001034        5.135197   -1.524387    2.348139
     52          1    20001034        6.725203   -1.075607    1.718646
     53          1    20001029        5.276068   -0.777829   -1.709262
     54          1    20001034        8.623237   -0.015802   -2.462268
     55          1    20001034        7.126225    0.801377   -2.895008
     56          1    20001034        7.240962   -0.947902   -3.059475
     57          1    20001029        5.197368    0.572880    2.678607
     58          1    20001035        4.619196    2.668701    3.446313
     59          1    20001035        3.994356    3.096868    1.856854
     60          1    20001035        5.725544    3.136626    2.150843
     61          1    20001029       -4.632636    0.999130   -1.683104
     62          1    20001034       -7.496343    3.041435   -1.788086
     63          1    20001034       -6.300018    2.233328   -2.811876
     64          1    20001034       -5.806510    3.523123   -1.724525
 ---------------------------------------------------------------------

 SCF Done:  E(RHF) =  -1295.61561399     A.U. after   14 cycles

 The electronic state is 1-A.
 Alpha  occ. eigenvalues --  -20.53439 -20.52310 -20.51942 -20.51542 -15.59267
 Alpha  occ. eigenvalues --  -15.58213 -15.57815 -15.57105 -11.35736 -11.34520
 Alpha  occ. eigenvalues --  -11.34015 -11.33581 -11.28888 -11.28881 -11.25305
 Alpha  occ. eigenvalues --  -11.24558 -11.24220 -11.24197 -11.23841 -11.23783
 Alpha  occ. eigenvalues --  -11.23199 -11.23190 -11.23052 -11.22900 -11.22869
 Alpha  occ. eigenvalues --  -11.22772 -11.22029 -11.20679  -1.40363  -1.39671
 Alpha  occ. eigenvalues --   -1.38399  -1.38311  -1.25243  -1.23846  -1.22928
 Alpha  occ. eigenvalues --   -1.21697  -1.11526  -1.09632  -1.07469  -1.04711
 Alpha  occ. eigenvalues --   -1.01527  -0.99595  -0.99063  -0.95857  -0.95214
 Alpha  occ. eigenvalues --   -0.94921  -0.92700  -0.87337  -0.85901  -0.82900
 Alpha  occ. eigenvalues --   -0.81078  -0.80498  -0.79767  -0.77180  -0.76750
 Alpha  occ. eigenvalues --   -0.72635  -0.71651  -0.70766  -0.69223  -0.68445
 Alpha  occ. eigenvalues --   -0.67379  -0.65616  -0.64835  -0.64085  -0.63201
 Alpha  occ. eigenvalues --   -0.62577  -0.62240  -0.62193  -0.61802  -0.61666
 Alpha  occ. eigenvalues --   -0.61274  -0.60309  -0.59572  -0.59326  -0.58947
 Alpha  occ. eigenvalues --   -0.58000  -0.57588  -0.56743  -0.56584  -0.56290
 Alpha  occ. eigenvalues --   -0.55735  -0.55272  -0.55035  -0.54352  -0.54174
 Alpha  occ. eigenvalues --   -0.53638  -0.53282  -0.52952  -0.52745  -0.51958
 Alpha  occ. eigenvalues --   -0.51564  -0.50425  -0.50107  -0.49573  -0.49015
 Alpha  occ. eigenvalues --   -0.48494  -0.47183  -0.46858  -0.45439  -0.42781
 Alpha  occ. eigenvalues --   -0.41830  -0.41793  -0.41333  -0.39144  -0.38939
 Alpha  occ. eigenvalues --   -0.38607  -0.37914  -0.35331
 Alpha virt. eigenvalues --    0.16397   0.18990   0.19353   0.19839   0.21243
 Alpha virt. eigenvalues --    0.21413   0.21777   0.22674   0.23056   0.23657
 Alpha virt. eigenvalues --    0.24819   0.25868   0.26016   0.26388   0.27232

 Mulliken atomic charges:
              1
     1  C   -0.278194
     2  N   -0.781433
     3  C    0.813199
     4  O   -0.620896
     5  C    0.098262
     6  C   -0.476572
     7  C   -0.338955
     8  C   -0.322635
     9  C   -0.352075
    10  C   -0.179398
    11  C   -0.172849
    12  C   -0.355714
    13  C   -0.310582
    14  C   -0.330008
    15  C    0.090730
    16  C   -0.510071
    17  N   -0.787254
    18  C    0.767325
    19  C   -0.595790
    20  O   -0.613233
    21  C    0.820280
    22  O   -0.640725
    23  N   -0.805817
    24  C   -0.275340
    25  N   -0.847288
    26  C    0.744935
    27  C   -0.590314
    28  O   -0.592073
    29  H    0.184884
    30  H    0.198468
    31  H    0.161479
    32  H    0.389708
    33  H    0.193679
    34  H    0.145984
    35  H    0.212383
    36  H    0.178139
    37  H    0.203140
    38  H    0.179467
    39  H    0.140138
    40  H    0.183157
    41  H    0.177094
    42  H    0.186094
    43  H    0.178722
    44  H    0.173428
    45  H    0.165082
    46  H    0.152146
    47  H    0.196958
    48  H    0.175206
    49  H    0.186161
    50  H    0.184647
    51  H    0.149709
    52  H    0.227253
    53  H    0.389236
    54  H    0.212006
    55  H    0.208629
    56  H    0.176642
    57  H    0.396488
    58  H    0.166428
    59  H    0.197000
    60  H    0.185623
    61  H    0.391887
    62  H    0.218411
    63  H    0.176490
    64  H    0.200522
 Sum of Mulliken atomic charges =   0.00000

 Dipole moment (field-independent basis, Debye):
    X=             -0.0466    Y=             -1.3146    Z=             -5.2837  Tot=              5.4450
 Quadrupole moment (field-independent basis, Debye-Ang):
   XX=           -216.1664   YY=           -170.8584   ZZ=           -160.3832
   XY=            -12.0623   XZ=             34.1188   YZ=              2.4265

 Normal termination of Gaussian 09 at Thu Dec  5 15:59:24 2019.
