 Gaussian 09, Revision A.02,
 Gaussian 09:  EM64L-G09RevA.02 11-Jun-2009

 ---------------------------------
 #SP HF/6-31G* Geom=(ModRedundant)
 ---------------------------------

 ------------
 paramfit run
 ------------
 Symbolic Z-matrix:
 Charge =  0 Multiplicity = 1

                         Standard orientation:
 ---------------------------------------------------------------------
 Center     Atomic      Atomic             Coordinates (Angstroms)
 Number     Number       Type             X           Y           Z
 ---------------------------------------------------------------------
      1          6    20001001       -4.305187    2.862035    1.218579
      2          7    20001014       -4.502100    1.448169    0.974749
      3          6    20001002       -4.403444    0.960089   -0.283882
      4          8    20001024       -3.940489    1.597637   -1.188841
      5          6    90000001       -4.791112   -0.517035   -0.476763
      6          6    90000002       -5.075591   -0.783571   -1.958611
      7          6    90000002       -3.663530   -1.439903    0.060337
      8          6    90000002       -2.422611   -1.690346   -0.815467
      9          6    90000002       -1.302837   -0.631085   -0.788821
     10          6    20001004       -0.750183   -0.355294    0.589870
     11          6    20001004        0.350507   -0.851369    1.131302
     12          6    90000002        1.326897   -1.817709    0.504722
     13          6    90000002        2.624085   -1.165515   -0.006659
     14          6    90000002        3.426083   -0.485961    1.111340
     15          6    90000002        4.838075    0.055811    0.768689
     16          6    90000002        5.393732    0.735916    2.030496
     17          7    20001014        5.691234   -1.068203    0.407797
     18          6    20001002        6.951644   -0.878860   -0.080642
     19          6    20001001        7.561085   -2.085333   -0.757256
     20          8    20001024        7.537903    0.163277    0.016267
     21          6    20001002        4.722323    0.989088   -0.457817
     22          8    20001024        4.714125    0.531450   -1.568866
     23          7    20001014        4.529734    2.304951   -0.222446
     24          6    20001001        4.463773    3.241492   -1.325505
     25          7    20001014       -5.966125   -0.849877    0.341769
     26          6    20001002       -7.177809   -0.238119    0.210445
     27          6    20001001       -8.334139   -0.951616    0.879732
     28          8    20001024       -7.319788    0.794977   -0.380058
     29          1    20001035       -5.082899    3.462372    0.760638
     30          1    20001035       -3.351366    3.172162    0.817617
     31          1    20001035       -4.307445    3.031986    2.287908
     32          1    20001029       -5.101877    0.957463    1.595845
     33          1    20001034       -4.227204   -0.522589   -2.572662
     34          1    20001034       -5.304568   -1.835776   -2.098869
     35          1    20001034       -5.916087   -0.192861   -2.292610
     36          1    20001034       -4.133091   -2.405690    0.233513
     37          1    20001034       -3.353512   -1.073623    1.033994
     38          1    20001034       -1.991942   -2.628258   -0.477142
     39          1    20001034       -2.722070   -1.850914   -1.845960
     40          1    20001034       -1.658473    0.295960   -1.219488
     41          1    20001034       -0.514149   -0.982519   -1.444794
     42          1    20001033       -1.329140    0.330173    1.187413
     43          1    20001033        0.592619   -0.534987    2.133822
     44          1    20001034        0.860938   -2.339674   -0.322261
     45          1    20001034        1.579596   -2.580116    1.240571
     46          1    20001034        3.214328   -1.938782   -0.490439
     47          1    20001034        2.382723   -0.447833   -0.779645
     48          1    20001034        3.553682   -1.181445    1.938113
     49          1    20001034        2.849076    0.347903    1.493548
     50          1    20001034        5.533505   -0.016982    2.797431
     51          1    20001034        4.697043    1.470965    2.419991
     52          1    20001034        6.347132    1.206608    1.842839
     53          1    20001029        5.216773   -1.859728    0.037545
     54          1    20001034        8.635053   -1.978175   -0.770268
     55          1    20001034        7.202614   -2.125390   -1.781473
     56          1    20001034        7.289507   -3.011503   -0.262445
     57          1    20001029        4.779868    2.667615    0.667058
     58          1    20001035        4.186090    4.212855   -0.937864
     59          1    20001035        3.715827    2.918061   -2.034445
     60          1    20001035        5.414387    3.322030   -1.842807
     61          1    20001029       -5.973117   -1.766753    0.730144
     62          1    20001034       -9.126088   -0.239558    1.060735
     63          1    20001034       -8.042794   -1.419542    1.813388
     64          1    20001034       -8.708707   -1.723759    0.215432
 ---------------------------------------------------------------------

 SCF Done:  E(RHF) =  -1295.62007276     A.U. after   14 cycles

 The electronic state is 1-A.
 Alpha  occ. eigenvalues --  -20.53632 -20.52004 -20.51889 -20.51519 -15.59600
 Alpha  occ. eigenvalues --  -15.57810 -15.57475 -15.57466 -11.35944 -11.34213
 Alpha  occ. eigenvalues --  -11.33865 -11.33605 -11.29022 -11.28504 -11.24875
 Alpha  occ. eigenvalues --  -11.24875 -11.24352 -11.23995 -11.23336 -11.22711
 Alpha  occ. eigenvalues --  -11.22527 -11.22488 -11.22310 -11.22199 -11.22010
 Alpha  occ. eigenvalues --  -11.21739 -11.21631 -11.20827  -1.40571  -1.39310
 Alpha  occ. eigenvalues --   -1.38693  -1.38030  -1.25443  -1.23498  -1.22524
 Alpha  occ. eigenvalues --   -1.22041  -1.10761  -1.09264  -1.07150  -1.04179
 Alpha  occ. eigenvalues --   -1.01210  -0.99271  -0.98692  -0.95512  -0.95115
 Alpha  occ. eigenvalues --   -0.94532  -0.92248  -0.87357  -0.85654  -0.82654
 Alpha  occ. eigenvalues --   -0.81312  -0.79438  -0.78866  -0.77131  -0.76802
 Alpha  occ. eigenvalues --   -0.71866  -0.71257  -0.70981  -0.69039  -0.67946
 Alpha  occ. eigenvalues --   -0.66660  -0.65655  -0.64500  -0.63967  -0.63599
 Alpha  occ. eigenvalues --   -0.62657  -0.62332  -0.61802  -0.61383  -0.61169
 Alpha  occ. eigenvalues --   -0.60908  -0.59804  -0.59279  -0.58663  -0.58573
 Alpha  occ. eigenvalues --   -0.58312  -0.57743  -0.56484  -0.56331  -0.56156
 Alpha  occ. eigenvalues --   -0.55505  -0.54823  -0.54700  -0.54535  -0.53900
 Alpha  occ. eigenvalues --   -0.53096  -0.52945  -0.52330  -0.52105  -0.51512
 Alpha  occ. eigenvalues --   -0.51108  -0.50191  -0.49739  -0.49187  -0.48608
 Alpha  occ. eigenvalues --   -0.48236  -0.46944  -0.46345  -0.44494  -0.42830
 Alpha  occ. eigenvalues --   -0.42030  -0.41443  -0.41017  -0.39294  -0.38771
 Alpha  occ. eigenvalues --   -0.38241  -0.38204  -0.34477
 Alpha virt. eigenvalues --    0.17340   0.18814   0.19711   0.19968   0.20311
 Alpha virt. eigenvalues --    0.21651   0.22025   0.23175   0.23506   0.23818
 Alpha virt. eigenvalues --    0.25251   0.25675   0.26637   0.27013   0.27788

 Mulliken atomic charges:
              1
     1  C   -0.278963
     2  N   -0.782764
     3  C    0.815731
     4  O   -0.623931
     5  C    0.113062
     6  C   -0.478771
     7  C   -0.338726
     8  C   -0.310365
     9  C   -0.372611
    10  C   -0.178804
    11  C   -0.177590
    12  C   -0.353448
    13  C   -0.310477
    14  C   -0.329249
    15  C    0.090962
    16  C   -0.509679
    17  N   -0.787608
    18  C    0.767352
    19  C   -0.595674
    20  O   -0.613793
    21  C    0.820674
    22  O   -0.639764
    23  N   -0.805648
    24  C   -0.275596
    25  N   -0.846515
    26  C    0.744737
    27  C   -0.589004
    28  O   -0.591711
    29  H    0.186434
    30  H    0.197658
    31  H    0.162208
    32  H    0.391174
    33  H    0.199520
    34  H    0.144640
    35  H    0.213147
    36  H    0.152155
    37  H    0.193253
    38  H    0.164738
    39  H    0.175771
    40  H    0.214979
    41  H    0.173041
    42  H    0.182543
    43  H    0.170829
    44  H    0.176048
    45  H    0.160204
    46  H    0.150640
    47  H    0.199694
    48  H    0.172988
    49  H    0.185875
    50  H    0.183336
    51  H    0.148847
    52  H    0.226538
    53  H    0.389617
    54  H    0.211114
    55  H    0.209327
    56  H    0.176141
    57  H    0.395368
    58  H    0.165452
    59  H    0.199908
    60  H    0.184522
    61  H    0.383150
    62  H    0.218731
    63  H    0.177310
    64  H    0.201274
 Sum of Mulliken atomic charges =   0.00000

 Dipole moment (field-independent basis, Debye):
    X=             -3.3219    Y=             -4.8697    Z=              5.8287  Tot=              8.2899
 Quadrupole moment (field-independent basis, Debye-Ang):
   XX=           -189.6507   YY=           -155.6598   ZZ=           -173.1936
   XY=             18.1282   XZ=            -13.4122   YZ=              9.0888

 Normal termination of Gaussian 09 at Thu Dec  5 16:50:07 2019.
