 Gaussian 09, Revision A.02,
 Gaussian 09:  EM64L-G09RevA.02 11-Jun-2009

 ---------------------------------
 #SP HF/6-31G* Geom=(ModRedundant)
 ---------------------------------

 ------------
 paramfit run
 ------------
 Symbolic Z-matrix:
 Charge =  0 Multiplicity = 1

                         Standard orientation:
 ---------------------------------------------------------------------
 Center     Atomic      Atomic             Coordinates (Angstroms)
 Number     Number       Type             X           Y           Z
 ---------------------------------------------------------------------
      1          6    20001001        6.536038    2.322247   -1.949244
      2          7    20001014        5.928566    1.112965   -1.433626
      3          6    20001002        5.108050    1.175017   -0.358911
      4          8    20001024        4.673857    2.211159    0.062551
      5          6    90000001        4.641210   -0.171167    0.223530
      6          6    90000002        4.133247    0.037217    1.654051
      7          6    90000002        3.545533   -0.794547   -0.683383
      8          6    90000002        2.341474   -1.493895   -0.027038
      9          6    90000002        1.171822   -0.608877    0.447613
     10          6    20001004        0.570583    0.250508   -0.639699
     11          6    20001004       -0.518846    0.006867   -1.350008
     12          6    90000002       -1.430940   -1.192238   -1.250077
     13          6    90000002       -2.744080   -0.928065   -0.491500
     14          6    90000002       -3.606836    0.151368   -1.158878
     15          6    90000002       -5.033734    0.391039   -0.601055
     16          6    90000002       -5.654316    1.551870   -1.395285
     17          7    20001014       -5.822181   -0.815735   -0.809813
     18          6    20001002       -7.076978   -0.946815   -0.288894
     19          6    20001001       -7.609830   -2.360995   -0.257795
     20          8    20001024       -7.714935   -0.014754    0.115355
     21          6    20001002       -4.930784    0.644963    0.920014
     22          8    20001024       -4.871476   -0.279011    1.685966
     23          7    20001014       -4.807835    1.925859    1.330098
     24          6    20001001       -4.757997    2.237823    2.743744
     25          7    20001014        5.740472   -1.147213    0.203830
     26          6    20001002        6.922298   -0.969389    0.860593
     27          6    20001001        7.767663   -2.216996    1.012104
     28          8    20001024        7.275738    0.096823    1.278219
     29          1    20001035        7.239023    2.752275   -1.245088
     30          1    20001035        5.770159    3.054204   -2.159938
     31          1    20001035        7.054678    2.083404   -2.869201
     32          1    20001029        6.422599    0.261815   -1.566891
     33          1    20001034        3.339800    0.768275    1.684557
     34          1    20001034        3.762581   -0.905005    2.046558
     35          1    20001034        4.931588    0.393236    2.288739
     36          1    20001034        4.056216   -1.539035   -1.290146
     37          1    20001034        3.192848   -0.032047   -1.370760
     38          1    20001034        1.947604   -2.185620   -0.765957
     39          1    20001034        2.675231   -2.102279    0.807137
     40          1    20001034        1.493717    0.025862    1.263000
     41          1    20001034        0.418399   -1.269429    0.862171
     42          1    20001033        1.100085    1.166652   -0.845663
     43          1    20001033       -0.802089    0.742629   -2.086345
     44          1    20001034       -0.918920   -2.014670   -0.765404
     45          1    20001034       -1.665963   -1.533103   -2.257633
     46          1    20001034       -3.283621   -1.868881   -0.427200
     47          1    20001034       -2.517256   -0.644661    0.527844
     48          1    20001034       -3.722545   -0.081021   -2.215353
     49          1    20001034       -3.080755    1.097249   -1.105038
     50          1    20001034       -5.777855    1.240143   -2.425889
     51          1    20001034       -5.004180    2.420607   -1.394361
     52          1    20001034       -6.623964    1.826650   -1.007963
     53          1    20001029       -5.300714   -1.661160   -0.854971
     54          1    20001034       -8.686995   -2.331386   -0.195319
     55          1    20001034       -7.223102   -2.856971    0.627402
     56          1    20001034       -7.307175   -2.930568   -1.129785
     57          1    20001029       -5.098344    2.648987    0.715280
     58          1    20001035       -4.537537    3.291088    2.857549
     59          1    20001035       -3.977042    1.661187    3.217270
     60          1    20001035       -5.697482    2.014241    3.238854
     61          1    20001029        5.475475   -2.088668    0.016787
     62          1    20001034        8.795404   -1.925099    1.171845
     63          1    20001034        7.702180   -2.865065    0.145346
     64          1    20001034        7.427863   -2.774329    1.879119
 ---------------------------------------------------------------------

 SCF Done:  E(RHF) =  -1295.61114973     A.U. after   14 cycles

 The electronic state is 1-A.
 Alpha  occ. eigenvalues --  -20.53557 -20.52125 -20.51691 -20.51602 -15.59478
 Alpha  occ. eigenvalues --  -15.57961 -15.57609 -15.57188 -11.35806 -11.34336
 Alpha  occ. eigenvalues --  -11.33767 -11.33633 -11.28875 -11.28645 -11.25044
 Alpha  occ. eigenvalues --  -11.24633 -11.24273 -11.23821 -11.23506 -11.23397
 Alpha  occ. eigenvalues --  -11.22821 -11.22610 -11.22575 -11.22571 -11.22539
 Alpha  occ. eigenvalues --  -11.22352 -11.21824 -11.20699  -1.40472  -1.39454
 Alpha  occ. eigenvalues --   -1.38399  -1.38179  -1.25366  -1.23634  -1.22677
 Alpha  occ. eigenvalues --   -1.21776  -1.11154  -1.09471  -1.07278  -1.04373
 Alpha  occ. eigenvalues --   -1.01317  -0.99343  -0.98827  -0.95644  -0.95214
 Alpha  occ. eigenvalues --   -0.94720  -0.92562  -0.87401  -0.85727  -0.82514
 Alpha  occ. eigenvalues --   -0.81109  -0.79961  -0.79525  -0.76946  -0.76859
 Alpha  occ. eigenvalues --   -0.72239  -0.71405  -0.70664  -0.69201  -0.68159
 Alpha  occ. eigenvalues --   -0.67082  -0.65563  -0.64638  -0.63911  -0.63584
 Alpha  occ. eigenvalues --   -0.62495  -0.62178  -0.62100  -0.61547  -0.61391
 Alpha  occ. eigenvalues --   -0.61076  -0.60066  -0.59423  -0.58983  -0.58745
 Alpha  occ. eigenvalues --   -0.58130  -0.57603  -0.56551  -0.56211  -0.56030
 Alpha  occ. eigenvalues --   -0.55674  -0.55139  -0.54831  -0.54573  -0.54181
 Alpha  occ. eigenvalues --   -0.53261  -0.53163  -0.52402  -0.52267  -0.51602
 Alpha  occ. eigenvalues --   -0.51128  -0.50629  -0.49895  -0.49048  -0.48736
 Alpha  occ. eigenvalues --   -0.48282  -0.47193  -0.46546  -0.44882  -0.42902
 Alpha  occ. eigenvalues --   -0.41969  -0.41597  -0.41142  -0.38954  -0.38915
 Alpha  occ. eigenvalues --   -0.38363  -0.38025  -0.34846
 Alpha virt. eigenvalues --    0.16838   0.18808   0.19573   0.19841   0.21226
 Alpha virt. eigenvalues --    0.21514   0.21919   0.22956   0.23501   0.24365
 Alpha virt. eigenvalues --    0.25215   0.25497   0.25996   0.26274   0.27335

 Mulliken atomic charges:
              1
     1  C   -0.278589
     2  N   -0.779134
     3  C    0.797629
     4  O   -0.620498
     5  C    0.136147
     6  C   -0.484017
     7  C   -0.358192
     8  C   -0.319153
     9  C   -0.352817
    10  C   -0.180602
    11  C   -0.175314
    12  C   -0.354736
    13  C   -0.310293
    14  C   -0.329823
    15  C    0.090739
    16  C   -0.510008
    17  N   -0.787398
    18  C    0.767379
    19  C   -0.595715
    20  O   -0.613459
    21  C    0.820450
    22  O   -0.640657
    23  N   -0.805506
    24  C   -0.275398
    25  N   -0.849389
    26  C    0.743049
    27  C   -0.588856
    28  O   -0.591138
    29  H    0.185321
    30  H    0.197672
    31  H    0.161863
    32  H    0.390040
    33  H    0.199885
    34  H    0.148546
    35  H    0.213397
    36  H    0.164222
    37  H    0.207111
    38  H    0.170845
    39  H    0.160019
    40  H    0.185159
    41  H    0.175608
    42  H    0.191331
    43  H    0.176193
    44  H    0.173792
    45  H    0.162672
    46  H    0.151010
    47  H    0.197841
    48  H    0.174141
    49  H    0.186889
    50  H    0.183958
    51  H    0.149905
    52  H    0.226775
    53  H    0.389292
    54  H    0.211519
    55  H    0.208790
    56  H    0.176316
    57  H    0.396179
    58  H    0.166461
    59  H    0.197937
    60  H    0.184871
    61  H    0.383777
    62  H    0.218506
    63  H    0.176670
    64  H    0.200782
 Sum of Mulliken atomic charges =   0.00000

 Dipole moment (field-independent basis, Debye):
    X=              2.3501    Y=             -5.1076    Z=             -4.1547  Tot=              6.9909
 Quadrupole moment (field-independent basis, Debye-Ang):
   XX=           -196.4539   YY=           -157.9854   ZZ=           -171.8147
   XY=            -30.0931   XZ=             -3.9477   YZ=             -0.3659

 Normal termination of Gaussian 09 at Thu Dec  5 16:19:36 2019.
