 Gaussian 09, Revision A.02,
 Gaussian 09:  EM64L-G09RevA.02 11-Jun-2009

 ---------------------------------
 #SP HF/6-31G* Geom=(ModRedundant)
 ---------------------------------

 ------------
 paramfit run
 ------------
 Symbolic Z-matrix:
 Charge =  0 Multiplicity = 1

                         Standard orientation:
 ---------------------------------------------------------------------
 Center     Atomic      Atomic             Coordinates (Angstroms)
 Number     Number       Type             X           Y           Z
 ---------------------------------------------------------------------
      1          6    20001001        7.969347   -1.903465   -0.038217
      2          7    20001014        6.686582   -1.301535    0.260849
      3          6    20001002        5.912754   -0.827611   -0.743490
      4          8    20001024        6.128463   -1.077120   -1.897163
      5          6    90000001        4.647725   -0.056231   -0.326285
      6          6    90000002        4.151507    0.790367   -1.503094
      7          6    90000002        3.555251   -1.045869    0.162304
      8          6    90000002        2.410761   -0.518174    1.046223
      9          6    90000002        1.214372    0.152471    0.342287
     10          6    20001004        0.534369   -0.723941   -0.683275
     11          6    20001004       -0.564501   -1.444181   -0.526768
     12          6    90000002       -1.410903   -1.569191    0.717310
     13          6    90000002       -2.709602   -0.743389    0.685764
     14          6    90000002       -3.647717   -1.158157   -0.455647
     15          6    90000002       -5.065444   -0.531286   -0.497270
     16          6    90000002       -5.770196   -1.059170   -1.757474
     17          7    20001014       -5.798370   -0.962824    0.685153
     18          6    20001002       -7.026790   -0.451211    0.988951
     19          6    20001001       -7.486071   -0.695805    2.408121
     20          8    20001024       -7.697200    0.148081    0.194885
     21          6    20001002       -4.924621    1.006945   -0.444936
     22          8    20001024       -4.793039    1.567873    0.609567
     23          7    20001014       -4.852980    1.665607   -1.621801
     24          6    20001001       -4.771703    3.111658   -1.644872
     25          7    20001014        4.927244    0.794897    0.839426
     26          6    20001002        5.858807    1.790812    0.843367
     27          6    20001001        5.749470    2.768851    1.994716
     28          8    20001024        6.711045    1.882156    0.005819
     29          1    20001035        8.669280   -1.181214   -0.442440
     30          1    20001035        7.840726   -2.697400   -0.759221
     31          1    20001035        8.376131   -2.321434    0.874023
     32          1    20001029        6.583973   -0.862659    1.145803
     33          1    20001034        3.963150    0.179082   -2.372452
     34          1    20001034        3.233996    1.298221   -1.221142
     35          1    20001034        4.892639    1.527689   -1.775137
     36          1    20001034        4.082352   -1.802467    0.739318
     37          1    20001034        3.141632   -1.556042   -0.701943
     38          1    20001034        2.027882   -1.373048    1.595962
     39          1    20001034        2.802602    0.167411    1.790406
     40          1    20001034        1.530851    1.072255   -0.132269
     41          1    20001034        0.509631    0.441195    1.114176
     42          1    20001033        1.009650   -0.751540   -1.650467
     43          1    20001033       -0.909092   -2.009273   -1.378642
     44          1    20001034       -0.841995   -1.273207    1.590353
     45          1    20001034       -1.661970   -2.619403    0.860885
     46          1    20001034       -3.198397   -0.859248    1.649108
     47          1    20001034       -2.463416    0.306885    0.601216
     48          1    20001034       -3.786815   -2.236929   -0.434723
     49          1    20001034       -3.168661   -0.925316   -1.399384
     50          1    20001034       -5.912230   -2.128543   -1.653315
     51          1    20001034       -5.165180   -0.896584   -2.643420
     52          1    20001034       -6.738998   -0.602386   -1.893532
     53          1    20001029       -5.236601   -1.190384    1.473408
     54          1    20001034       -8.560657   -0.604361    2.452421
     55          1    20001034       -7.045334    0.061349    3.049676
     56          1    20001034       -7.184341   -1.671848    2.772372
     57          1    20001029       -5.200116    1.217072   -2.436430
     58          1    20001035       -4.601129    3.431885   -2.664324
     59          1    20001035       -3.947164    3.440561   -1.029580
     60          1    20001035       -5.681574    3.572124   -1.273578
     61          1    20001029        4.183360    0.882205    1.495598
     62          1    20001034        6.706048    3.250581    2.135668
     63          1    20001034        5.444086    2.285845    2.916126
     64          1    20001034        5.013302    3.527436    1.748937
 ---------------------------------------------------------------------

 SCF Done:  E(RHF) =  -1295.61120283     A.U. after   14 cycles

 The electronic state is 1-A.
 Alpha  occ. eigenvalues --  -20.53341 -20.52407 -20.52073 -20.51560 -15.59015
 Alpha  occ. eigenvalues --  -15.58344 -15.57923 -15.57063 -11.35622 -11.34616
 Alpha  occ. eigenvalues --  -11.34144 -11.33557 -11.29007 -11.28860 -11.25438
 Alpha  occ. eigenvalues --  -11.24543 -11.24541 -11.24144 -11.23931 -11.23808
 Alpha  occ. eigenvalues --  -11.23642 -11.23389 -11.23318 -11.23143 -11.23071
 Alpha  occ. eigenvalues --  -11.22854 -11.22143 -11.20665  -1.40273  -1.39785
 Alpha  occ. eigenvalues --   -1.38513  -1.38302  -1.25227  -1.23958  -1.23059
 Alpha  occ. eigenvalues --   -1.21681  -1.11719  -1.09704  -1.07566  -1.04934
 Alpha  occ. eigenvalues --   -1.01673  -0.99742  -0.99180  -0.95917  -0.95234
 Alpha  occ. eigenvalues --   -0.95020  -0.92740  -0.87414  -0.86039  -0.83174
 Alpha  occ. eigenvalues --   -0.81612  -0.80309  -0.79880  -0.77302  -0.76718
 Alpha  occ. eigenvalues --   -0.72849  -0.71786  -0.71002  -0.69156  -0.68591
 Alpha  occ. eigenvalues --   -0.67498  -0.65474  -0.64943  -0.64229  -0.63078
 Alpha  occ. eigenvalues --   -0.62685  -0.62286  -0.62141  -0.61939  -0.61789
 Alpha  occ. eigenvalues --   -0.61324  -0.60262  -0.59684  -0.59401  -0.59055
 Alpha  occ. eigenvalues --   -0.58140  -0.57750  -0.56948  -0.56778  -0.56408
 Alpha  occ. eigenvalues --   -0.55824  -0.55383  -0.55153  -0.54403  -0.54239
 Alpha  occ. eigenvalues --   -0.53625  -0.53281  -0.52871  -0.52843  -0.52163
 Alpha  occ. eigenvalues --   -0.51568  -0.50409  -0.50212  -0.49677  -0.49168
 Alpha  occ. eigenvalues --   -0.48910  -0.47234  -0.47023  -0.45676  -0.42673
 Alpha  occ. eigenvalues --   -0.41950  -0.41807  -0.41433  -0.39264  -0.38902
 Alpha  occ. eigenvalues --   -0.38734  -0.37858  -0.35584
 Alpha virt. eigenvalues --    0.16200   0.18996   0.19244   0.19826   0.21152
 Alpha virt. eigenvalues --    0.21367   0.21714   0.22568   0.22771   0.23489
 Alpha virt. eigenvalues --    0.24568   0.25610   0.26083   0.26363   0.26892

 Mulliken atomic charges:
              1
     1  C   -0.277816
     2  N   -0.780850
     3  C    0.806610
     4  O   -0.618191
     5  C    0.107260
     6  C   -0.475855
     7  C   -0.340659
     8  C   -0.327786
     9  C   -0.351912
    10  C   -0.178715
    11  C   -0.171377
    12  C   -0.356403
    13  C   -0.310718
    14  C   -0.330106
    15  C    0.090766
    16  C   -0.510094
    17  N   -0.787199
    18  C    0.767279
    19  C   -0.595828
    20  O   -0.613131
    21  C    0.820196
    22  O   -0.640711
    23  N   -0.805963
    24  C   -0.275308
    25  N   -0.862458
    26  C    0.746857
    27  C   -0.592036
    28  O   -0.592417
    29  H    0.184804
    30  H    0.198459
    31  H    0.161358
    32  H    0.389492
    33  H    0.194215
    34  H    0.145622
    35  H    0.211383
    36  H    0.188399
    37  H    0.200156
    38  H    0.184329
    39  H    0.134266
    40  H    0.177532
    41  H    0.178702
    42  H    0.185186
    43  H    0.179575
    44  H    0.173480
    45  H    0.166309
    46  H    0.152859
    47  H    0.196485
    48  H    0.175663
    49  H    0.185751
    50  H    0.184940
    51  H    0.149526
    52  H    0.227521
    53  H    0.389241
    54  H    0.212250
    55  H    0.208610
    56  H    0.176819
    57  H    0.396605
    58  H    0.166420
    59  H    0.196557
    60  H    0.186006
    61  H    0.403368
    62  H    0.218560
    63  H    0.175852
    64  H    0.200266
 Sum of Mulliken atomic charges =   0.00000

 Dipole moment (field-independent basis, Debye):
    X=             -1.2759    Y=             -1.5511    Z=              4.3036  Tot=              4.7492
 Quadrupole moment (field-independent basis, Debye-Ang):
   XX=           -228.3367   YY=           -168.9428   ZZ=           -162.1483
   XY=              9.7016   XZ=             35.8690   YZ=             -6.2191

 Normal termination of Gaussian 09 at Thu Dec  5 16:51:13 2019.
