 Gaussian 09, Revision A.02,
 Gaussian 09:  EM64L-G09RevA.02 11-Jun-2009

 ---------------------------------
 #SP HF/6-31G* Geom=(ModRedundant)
 ---------------------------------

 ------------
 paramfit run
 ------------
 Symbolic Z-matrix:
 Charge =  0 Multiplicity = 1

                         Standard orientation:
 ---------------------------------------------------------------------
 Center     Atomic      Atomic             Coordinates (Angstroms)
 Number     Number       Type             X           Y           Z
 ---------------------------------------------------------------------
      1          6    20001001       -7.276621   -1.289180   -2.011369
      2          7    20001014       -6.069998   -0.906853   -1.307712
      3          6    20001002       -6.075933   -0.816922    0.042838
      4          8    20001024       -6.969300   -1.253042    0.714732
      5          6    90000001       -4.804968   -0.244202    0.695545
      6          6    90000002       -5.124998    0.222077    2.119626
      7          6    90000002       -3.673852   -1.308204    0.686708
      8          6    90000002       -2.579475   -1.226030   -0.392744
      9          6    90000002       -1.403768   -0.259587   -0.147105
     10          6    20001004       -0.655090   -0.516791    1.139598
     11          6    20001004        0.476043   -1.185641    1.294310
     12          6    90000002        1.298608   -1.858889    0.221986
     13          6    90000002        2.552663   -1.073092   -0.201612
     14          6    90000002        3.537555   -0.860554    0.955854
     15          6    90000002        4.921094   -0.240534    0.630212
     16          6    90000002        5.681698   -0.078884    1.956411
     17          7    20001014        5.647858   -1.157607   -0.237152
     18          6    20001002        6.840388   -0.810097   -0.802984
     19          6    20001001        7.278651   -1.685375   -1.954774
     20          8    20001024        7.496817    0.118253   -0.420347
     21          6    20001002        4.698732    1.080758   -0.140157
     22          8    20001024        4.513418    1.066217   -1.327328
     23          7    20001014        4.620141    2.217795    0.584379
     24          6    20001001        4.463811    3.496142   -0.078637
     25          7    20001014       -4.274818    0.869381   -0.104645
     26          6    20001002       -4.973485    2.009846   -0.370869
     27          6    20001001       -4.144437    3.164258   -0.894446
     28          8    20001024       -6.158780    2.093097   -0.215034
     29          1    20001035       -8.055567   -0.542036   -1.911539
     30          1    20001035       -7.646638   -2.225218   -1.619395
     31          1    20001035       -7.039192   -1.418056   -3.059879
     32          1    20001029       -5.426985   -0.322807   -1.789076
     33          1    20001034       -5.535444   -0.581924    2.711275
     34          1    20001034       -4.217465    0.583741    2.593778
     35          1    20001034       -5.853544    1.019417    2.099722
     36          1    20001034       -4.173914   -2.266258    0.563033
     37          1    20001034       -3.214058   -1.329914    1.669764
     38          1    20001034       -2.165270   -2.225604   -0.487105
     39          1    20001034       -3.023916   -0.992247   -1.354613
     40          1    20001034       -1.756833    0.763486   -0.152670
     41          1    20001034       -0.733293   -0.349286   -0.994602
     42          1    20001033       -1.105606   -0.096610    2.024243
     43          1    20001033        0.869510   -1.263900    2.295719
     44          1    20001034        0.694790   -2.034938   -0.659987
     45          1    20001034        1.600911   -2.841043    0.583341
     46          1    20001034        3.024273   -1.616980   -1.015335
     47          1    20001034        2.253853   -0.118849   -0.615089
     48          1    20001034        3.732427   -1.813244    1.443646
     49          1    20001034        3.069084   -0.222917    1.696330
     50          1    20001034        5.877070   -1.062892    2.366459
     51          1    20001034        5.089808    0.465094    2.685200
     52          1    20001034        6.628156    0.421061    1.814954
     53          1    20001029        5.080561   -1.752864   -0.796218
     54          1    20001034        8.345650   -1.588615   -2.085966
     55          1    20001034        6.784039   -1.341517   -2.858238
     56          1    20001034        7.020040   -2.726891   -1.797466
     57          1    20001029        5.009180    2.224252    1.497570
     58          1    20001035        4.300506    4.257408    0.672844
     59          1    20001035        3.609066    3.462936   -0.738132
     60          1    20001035        5.339422    3.755418   -0.665012
     61          1    20001029       -3.282135    0.941044   -0.136155
     62          1    20001034       -4.791828    3.845961   -1.426552
     63          1    20001034       -3.345845    2.832741   -1.548585
     64          1    20001034       -3.700052    3.692278   -0.056879
 ---------------------------------------------------------------------

 SCF Done:  E(RHF) =  -1295.60581194     A.U. after   14 cycles

 The electronic state is 1-A.
 Alpha  occ. eigenvalues --  -20.53183 -20.52629 -20.52383 -20.51409 -15.58671
 Alpha  occ. eigenvalues --  -15.58668 -15.58175 -15.57059 -11.35428 -11.34835
 Alpha  occ. eigenvalues --  -11.34454 -11.33398 -11.29313 -11.28674 -11.25772
 Alpha  occ. eigenvalues --  -11.24788 -11.24510 -11.24295 -11.24087 -11.24046
 Alpha  occ. eigenvalues --  -11.24045 -11.23877 -11.23811 -11.23673 -11.23473
 Alpha  occ. eigenvalues --  -11.23028 -11.22428 -11.20722  -1.40122  -1.40054
 Alpha  occ. eigenvalues --   -1.38778  -1.38197  -1.25127  -1.24220  -1.23380
 Alpha  occ. eigenvalues --   -1.21631  -1.12194  -1.09852  -1.07820  -1.05426
 Alpha  occ. eigenvalues --   -1.01891  -0.99914  -0.99386  -0.96039  -0.95375
 Alpha  occ. eigenvalues --   -0.95096  -0.92951  -0.87439  -0.86252  -0.83516
 Alpha  occ. eigenvalues --   -0.81648  -0.80845  -0.80164  -0.77597  -0.76839
 Alpha  occ. eigenvalues --   -0.73687  -0.72132  -0.70979  -0.68978  -0.68808
 Alpha  occ. eigenvalues --   -0.67769  -0.65291  -0.64906  -0.64621  -0.63639
 Alpha  occ. eigenvalues --   -0.62749  -0.62341  -0.62141  -0.62016  -0.61770
 Alpha  occ. eigenvalues --   -0.61147  -0.60245  -0.59792  -0.59373  -0.59339
 Alpha  occ. eigenvalues --   -0.58667  -0.57756  -0.57386  -0.57192  -0.56751
 Alpha  occ. eigenvalues --   -0.56110  -0.55627  -0.55457  -0.54785  -0.54261
 Alpha  occ. eigenvalues --   -0.53920  -0.53580  -0.53026  -0.52558  -0.52089
 Alpha  occ. eigenvalues --   -0.51332  -0.50671  -0.50450  -0.49840  -0.49574
 Alpha  occ. eigenvalues --   -0.49353  -0.47471  -0.47152  -0.46108  -0.42564
 Alpha  occ. eigenvalues --   -0.42238  -0.41738  -0.41662  -0.39553  -0.39040
 Alpha  occ. eigenvalues --   -0.38532  -0.37921  -0.36232
 Alpha virt. eigenvalues --    0.15541   0.18940   0.19017   0.19894   0.20886
 Alpha virt. eigenvalues --    0.21079   0.21528   0.22146   0.22688   0.23033
 Alpha virt. eigenvalues --    0.24250   0.25058   0.26021   0.26610   0.27109

 Mulliken atomic charges:
              1
     1  C   -0.278147
     2  N   -0.782212
     3  C    0.797620
     4  O   -0.620003
     5  C    0.136734
     6  C   -0.473456
     7  C   -0.361694
     8  C   -0.330433
     9  C   -0.380188
    10  C   -0.169818
    11  C   -0.169281
    12  C   -0.358946
    13  C   -0.311275
    14  C   -0.330249
    15  C    0.091009
    16  C   -0.510079
    17  N   -0.787136
    18  C    0.767116
    19  C   -0.595929
    20  O   -0.612976
    21  C    0.819863
    22  O   -0.640164
    23  N   -0.806532
    24  C   -0.275249
    25  N   -0.883019
    26  C    0.747402
    27  C   -0.594717
    28  O   -0.594020
    29  H    0.185447
    30  H    0.198147
    31  H    0.160989
    32  H    0.392368
    33  H    0.197574
    34  H    0.139792
    35  H    0.211152
    36  H    0.202307
    37  H    0.188195
    38  H    0.184404
    39  H    0.174373
    40  H    0.156661
    41  H    0.190637
    42  H    0.180109
    43  H    0.181559
    44  H    0.176493
    45  H    0.169150
    46  H    0.155329
    47  H    0.195211
    48  H    0.176649
    49  H    0.184121
    50  H    0.185565
    51  H    0.148753
    52  H    0.228224
    53  H    0.389425
    54  H    0.212790
    55  H    0.208909
    56  H    0.177266
    57  H    0.396768
    58  H    0.166052
    59  H    0.195514
    60  H    0.187228
    61  H    0.414481
    62  H    0.218294
    63  H    0.176411
    64  H    0.199433
 Sum of Mulliken atomic charges =   0.00000

 Dipole moment (field-independent basis, Debye):
    X=              4.3882    Y=             -0.5570    Z=             -0.3512  Tot=              4.4373
 Quadrupole moment (field-independent basis, Debye-Ang):
   XX=           -258.4629   YY=           -161.5243   ZZ=           -164.5683
   XY=            -10.8207   XZ=             25.2531   YZ=              9.3062

 Normal termination of Gaussian 09 at Thu Dec  5 16:20:41 2019.
