 Gaussian 09, Revision A.02,
 Gaussian 09:  EM64L-G09RevA.02 11-Jun-2009

 ---------------------------------
 #SP HF/6-31G* Geom=(ModRedundant)
 ---------------------------------

 ------------
 paramfit run
 ------------
 Symbolic Z-matrix:
 Charge =  0 Multiplicity = 1

                         Standard orientation:
 ---------------------------------------------------------------------
 Center     Atomic      Atomic             Coordinates (Angstroms)
 Number     Number       Type             X           Y           Z
 ---------------------------------------------------------------------
      1          6    20001001        4.958369   -0.361346    3.199915
      2          7    20001014        4.571905   -0.298273    1.805672
      3          6    20001002        5.382268   -0.821725    0.856242
      4          8    20001024        6.307435   -1.538458    1.121019
      5          6    90000001        4.977454   -0.563750   -0.606277
      6          6    90000002        6.185168   -0.792911   -1.521019
      7          6    90000002        3.785076   -1.477529   -0.999780
      8          6    90000002        2.655943   -1.712603    0.019746
      9          6    90000002        1.550917   -0.642556    0.122486
     10          6    20001004        0.839407   -0.366465   -1.181279
     11          6    20001004       -0.322842   -0.853753   -1.584373
     12          6    90000002       -1.225900   -1.808189   -0.840536
     13          6    90000002       -2.446263   -1.141467   -0.180413
     14          6    90000002       -3.370286   -0.458238   -1.197413
     15          6    90000002       -4.725887    0.098565   -0.690495
     16          6    90000002       -5.422610    0.779410   -1.879814
     17          7    20001014       -5.539948   -1.015719   -0.224445
     18          6    20001002       -6.730838   -0.812268    0.410730
     19          6    20001001       -7.265834   -2.010225    1.161386
     20          8    20001024       -7.314815    0.235184    0.379805
     21          6    20001002       -4.455168    1.035185    0.508747
     22          8    20001024       -4.317954    0.581590    1.612989
     23          7    20001014       -4.280038    2.348225    0.245617
     24          6    20001001       -4.073530    3.288140    1.328259
     25          7    20001014        4.464750    0.805242   -0.762560
     26          6    20001002        5.196043    1.923155   -0.488420
     27          6    20001001        4.629661    3.213871   -1.042840
     28          8    20001024        6.207058    1.892782    0.154283
     29          1    20001035        5.838000    0.238916    3.402111
     30          1    20001035        5.170616   -1.384389    3.473883
     31          1    20001035        4.134913   -0.000856    3.803505
     32          1    20001029        3.991838    0.458123    1.526974
     33          1    20001034        6.584257   -1.788357   -1.399585
     34          1    20001034        5.885968   -0.654594   -2.555710
     35          1    20001034        6.973491   -0.092757   -1.285949
     36          1    20001034        4.221504   -2.448491   -1.223359
     37          1    20001034        3.363875   -1.111832   -1.930981
     38          1    20001034        2.179125   -2.647503   -0.259941
     39          1    20001034        3.075386   -1.872288    1.007643
     40          1    20001034        1.964228    0.282551    0.502900
     41          1    20001034        0.843416   -0.983844    0.870015
     42          1    20001033        1.348805    0.311104   -1.847258
     43          1    20001033       -0.680556   -0.538720   -2.552131
     44          1    20001034       -0.668932   -2.331628   -0.072902
     45          1    20001034       -1.572115   -2.570798   -1.537068
     46          1    20001034       -2.981328   -1.907141    0.374407
     47          1    20001034       -2.107261   -0.423333    0.554564
     48          1    20001034       -3.602601   -1.155487   -1.999540
     49          1    20001034       -2.835613    0.368532   -1.650100
     50          1    20001034       -5.660362    0.025090   -2.620799
     51          1    20001034       -4.770913    1.506175   -2.353612
     52          1    20001034       -6.342206    1.260084   -1.581432
     53          1    20001029       -5.031838   -1.810472    0.090046
     54          1    20001034       -8.329444   -1.892530    1.302604
     55          1    20001034       -6.787446   -2.050004    2.135390
     56          1    20001034       -7.064177   -2.940823    0.642054
     57          1    20001029       -4.631726    2.710034   -0.609205
     58          1    20001035       -3.835385    4.255308    0.905419
     59          1    20001035       -3.248951    2.960032    1.943922
     60          1    20001035       -4.954420    3.379871    1.955455
     61          1    20001029        3.719287    0.912833   -1.413910
     62          1    20001034        5.025541    4.041995   -0.473224
     63          1    20001034        3.546059    3.233551   -1.011675
     64          1    20001034        4.941604    3.324743   -2.076378
 ---------------------------------------------------------------------

 SCF Done:  E(RHF) =  -1295.61451159     A.U. after   14 cycles

 The electronic state is 1-A.
 Alpha  occ. eigenvalues --  -20.53554 -20.52513 -20.52236 -20.51722 -15.59457
 Alpha  occ. eigenvalues --  -15.58550 -15.58044 -15.57089 -11.35815 -11.34716
 Alpha  occ. eigenvalues --  -11.34314 -11.33642 -11.29178 -11.28916 -11.25660
 Alpha  occ. eigenvalues --  -11.24693 -11.24293 -11.24120 -11.23861 -11.23740
 Alpha  occ. eigenvalues --  -11.23562 -11.23480 -11.23304 -11.23195 -11.22907
 Alpha  occ. eigenvalues --  -11.22605 -11.22343 -11.20819  -1.40475  -1.39921
 Alpha  occ. eigenvalues --   -1.38648  -1.38478  -1.25359  -1.24088  -1.23259
 Alpha  occ. eigenvalues --   -1.21916  -1.11700  -1.09599  -1.07784  -1.04920
 Alpha  occ. eigenvalues --   -1.01666  -0.99763  -0.99227  -0.95772  -0.95346
 Alpha  occ. eigenvalues --   -0.95160  -0.92673  -0.87305  -0.86105  -0.83517
 Alpha  occ. eigenvalues --   -0.81900  -0.80073  -0.79565  -0.77473  -0.77055
 Alpha  occ. eigenvalues --   -0.72992  -0.71921  -0.71145  -0.68898  -0.68739
 Alpha  occ. eigenvalues --   -0.67630  -0.65437  -0.64994  -0.64603  -0.64307
 Alpha  occ. eigenvalues --   -0.62691  -0.62446  -0.61975  -0.61817  -0.61490
 Alpha  occ. eigenvalues --   -0.60478  -0.60177  -0.59453  -0.59309  -0.59100
 Alpha  occ. eigenvalues --   -0.58975  -0.57833  -0.57105  -0.57016  -0.56489
 Alpha  occ. eigenvalues --   -0.55759  -0.55550  -0.55347  -0.54707  -0.54505
 Alpha  occ. eigenvalues --   -0.53826  -0.53296  -0.52906  -0.52272  -0.52061
 Alpha  occ. eigenvalues --   -0.51306  -0.50607  -0.50338  -0.49744  -0.49436
 Alpha  occ. eigenvalues --   -0.48590  -0.47499  -0.47066  -0.45733  -0.42780
 Alpha  occ. eigenvalues --   -0.42098  -0.41782  -0.41543  -0.39426  -0.39013
 Alpha  occ. eigenvalues --   -0.38908  -0.37951  -0.35781
 Alpha virt. eigenvalues --    0.15918   0.18167   0.18912   0.19116   0.20671
 Alpha virt. eigenvalues --    0.21060   0.21427   0.22437   0.22845   0.23609
 Alpha virt. eigenvalues --    0.24616   0.25588   0.25861   0.26727   0.26975

 Mulliken atomic charges:
              1
     1  C   -0.277141
     2  N   -0.784739
     3  C    0.794791
     4  O   -0.617612
     5  C    0.105977
     6  C   -0.471761
     7  C   -0.343624
     8  C   -0.321260
     9  C   -0.350059
    10  C   -0.173940
    11  C   -0.170182
    12  C   -0.357314
    13  C   -0.311631
    14  C   -0.329662
    15  C    0.091214
    16  C   -0.509775
    17  N   -0.787313
    18  C    0.767068
    19  C   -0.595886
    20  O   -0.613375
    21  C    0.820007
    22  O   -0.639273
    23  N   -0.806801
    24  C   -0.275306
    25  N   -0.843869
    26  C    0.743797
    27  C   -0.590475
    28  O   -0.591374
    29  H    0.186103
    30  H    0.197456
    31  H    0.162422
    32  H    0.399384
    33  H    0.197239
    34  H    0.144628
    35  H    0.212305
    36  H    0.194497
    37  H    0.165352
    38  H    0.167770
    39  H    0.210696
    40  H    0.155346
    41  H    0.180794
    42  H    0.152985
    43  H    0.176021
    44  H    0.180649
    45  H    0.166673
    46  H    0.155057
    47  H    0.196733
    48  H    0.175712
    49  H    0.182766
    50  H    0.185120
    51  H    0.147734
    52  H    0.227939
    53  H    0.389824
    54  H    0.212380
    55  H    0.209407
    56  H    0.177191
    57  H    0.396127
    58  H    0.164973
    59  H    0.196695
    60  H    0.187124
    61  H    0.388686
    62  H    0.218729
    63  H    0.176427
    64  H    0.200576
 Sum of Mulliken atomic charges =   0.00000

 Dipole moment (field-independent basis, Debye):
    X=             -3.5107    Y=              1.2789    Z=             -4.4310  Tot=              5.7961
 Quadrupole moment (field-independent basis, Debye-Ang):
   XX=           -251.7706   YY=           -157.4454   ZZ=           -166.5640
   XY=             17.0102   XZ=             -3.5555   YZ=             -4.0969

 Normal termination of Gaussian 09 at Thu Dec  5 16:53:00 2019.
