 Gaussian 09, Revision A.02,
 Gaussian 09:  EM64L-G09RevA.02 11-Jun-2009

 ---------------------------------
 #SP HF/6-31G* Geom=(ModRedundant)
 ---------------------------------

 ------------
 paramfit run
 ------------
 Symbolic Z-matrix:
 Charge =  0 Multiplicity = 1

                         Standard orientation:
 ---------------------------------------------------------------------
 Center     Atomic      Atomic             Coordinates (Angstroms)
 Number     Number       Type             X           Y           Z
 ---------------------------------------------------------------------
      1          6    20001001       -7.754680   -1.461412   -1.349934
      2          7    20001014       -6.423970   -1.024257   -0.982034
      3          6    20001002       -6.121092   -0.804846    0.318825
      4          8    20001024       -6.830641   -1.166158    1.216455
      5          6    90000001       -4.741967   -0.183676    0.604388
      6          6    90000002       -4.732882    0.420267    2.012583
      7          6    90000002       -3.629086   -1.253901    0.437897
      8          6    90000002       -2.523333   -1.025174   -0.608346
      9          6    90000002       -1.333721   -0.130225   -0.207686
     10          6    20001004       -0.601702   -0.597684    1.028399
     11          6    20001004        0.516375   -1.303001    1.084864
     12          6    90000002        1.337446   -1.816550   -0.073524
     13          6    90000002        2.608633   -0.997576   -0.361503
     14          6    90000002        3.586033   -0.985320    0.821481
     15          6    90000002        4.982933   -0.347656    0.605374
     16          6    90000002        5.733631   -0.407758    1.945633
     17          7    20001014        5.702139   -1.132099   -0.389071
     18          6    20001002        6.905696   -0.722821   -0.886061
     19          6    20001001        7.339850   -1.416559   -2.156905
     20          8    20001024        7.574187    0.122727   -0.359457
     21          6    20001002        4.790366    1.081043    0.048185
     22          8    20001024        4.616043    1.254351   -1.128040
     23          7    20001014        4.724302    2.093073    0.940044
     24          6    20001001        4.596009    3.461485    0.482669
     25          7    20001014       -4.424301    0.842919   -0.398918
     26          6    20001002       -5.180420    1.958848   -0.605454
     27          6    20001001       -4.508935    3.049942   -1.413379
     28          8    20001024       -6.299343    2.067535   -0.190316
     29          1    20001035       -8.499752   -0.701037   -1.145860
     30          1    20001035       -8.012498   -2.352004   -0.795769
     31          1    20001035       -7.762451   -1.692664   -2.407675
     32          1    20001029       -5.916319   -0.495103   -1.651789
     33          1    20001034       -4.985982   -0.319339    2.756798
     34          1    20001034       -3.745637    0.817526    2.228845
     35          1    20001034       -5.457035    1.218630    2.084311
     36          1    20001034       -4.144188   -2.171841    0.163532
     37          1    20001034       -3.179024   -1.436345    1.408690
     38          1    20001034       -2.125325   -2.005385   -0.854098
     39          1    20001034       -2.954635   -0.636832   -1.525158
     40          1    20001034       -1.669258    0.887589   -0.056583
     41          1    20001034       -0.656902   -0.099519   -1.054331
     42          1    20001033       -1.053330   -0.311756    1.964557
     43          1    20001033        0.898988   -1.542936    2.064558
     44          1    20001034        0.739070   -1.842493   -0.976153
     45          1    20001034        1.619571   -2.848252    0.132853
     46          1    20001034        3.078576   -1.417084   -1.246681
     47          1    20001034        2.330019    0.014584   -0.623681
     48          1    20001034        3.760055   -2.005582    1.156617
     49          1    20001034        3.121515   -0.461902    1.648890
     50          1    20001034        5.908352   -1.446893    2.199110
     51          1    20001034        5.144232    0.027222    2.746122
     52          1    20001034        6.689752    0.090705    1.889896
     53          1    20001029        5.130096   -1.622890   -1.037610
     54          1    20001034        8.409531   -1.320123   -2.264341
     55          1    20001034        6.859708   -0.927645   -2.999253
     56          1    20001034        7.062081   -2.464967   -2.165060
     57          1    20001029        5.104759    1.950588    1.845726
     58          1    20001035        4.438597    4.099728    1.342197
     59          1    20001035        3.747084    3.546681   -0.179670
     60          1    20001035        5.481399    3.792596   -0.050440
     61          1    20001029       -3.466361    0.902137   -0.664230
     62          1    20001034       -5.270087    3.683222   -1.845325
     63          1    20001034       -3.877406    2.649779   -2.198611
     64          1    20001034       -3.891267    3.651956   -0.754693
 ---------------------------------------------------------------------

 SCF Done:  E(RHF) =  -1295.60626869     A.U. after   14 cycles

 The electronic state is 1-A.
 Alpha  occ. eigenvalues --  -20.53278 -20.52567 -20.52297 -20.51490 -15.58929
 Alpha  occ. eigenvalues --  -15.58576 -15.58104 -15.57046 -11.35524 -11.34775
 Alpha  occ. eigenvalues --  -11.34367 -11.33461 -11.29224 -11.28757 -11.25680
 Alpha  occ. eigenvalues --  -11.24526 -11.24459 -11.24221 -11.24186 -11.24101
 Alpha  occ. eigenvalues --  -11.23817 -11.23692 -11.23646 -11.23629 -11.23355
 Alpha  occ. eigenvalues --  -11.22983 -11.22342 -11.20756  -1.40217  -1.39979
 Alpha  occ. eigenvalues --   -1.38705  -1.38256  -1.25259  -1.24145  -1.23289
 Alpha  occ. eigenvalues --   -1.21659  -1.12043  -1.09809  -1.07747  -1.05313
 Alpha  occ. eigenvalues --   -1.01855  -0.99925  -0.99339  -0.96003  -0.95320
 Alpha  occ. eigenvalues --   -0.95110  -0.92863  -0.87427  -0.86205  -0.83474
 Alpha  occ. eigenvalues --   -0.81487  -0.80834  -0.80091  -0.77513  -0.76766
 Alpha  occ. eigenvalues --   -0.73429  -0.72035  -0.70972  -0.68976  -0.68854
 Alpha  occ. eigenvalues --   -0.67720  -0.65178  -0.65066  -0.64505  -0.63402
 Alpha  occ. eigenvalues --   -0.62692  -0.62434  -0.62099  -0.61963  -0.61880
 Alpha  occ. eigenvalues --   -0.61253  -0.60296  -0.59784  -0.59275  -0.59097
 Alpha  occ. eigenvalues --   -0.58723  -0.57773  -0.57278  -0.57047  -0.56645
 Alpha  occ. eigenvalues --   -0.55945  -0.55535  -0.55357  -0.54699  -0.54266
 Alpha  occ. eigenvalues --   -0.53846  -0.53566  -0.52924  -0.52542  -0.52224
 Alpha  occ. eigenvalues --   -0.51550  -0.50627  -0.50386  -0.49805  -0.49476
 Alpha  occ. eigenvalues --   -0.49329  -0.47334  -0.47124  -0.46038  -0.42614
 Alpha  occ. eigenvalues --   -0.42157  -0.41871  -0.41598  -0.39471  -0.38954
 Alpha  occ. eigenvalues --   -0.38668  -0.37856  -0.36024
 Alpha virt. eigenvalues --    0.15730   0.18733   0.19061   0.19884   0.20961
 Alpha virt. eigenvalues --    0.21167   0.21520   0.22297   0.22578   0.23215
 Alpha virt. eigenvalues --    0.24449   0.25217   0.26101   0.26672   0.26992

 Mulliken atomic charges:
              1
     1  C   -0.278128
     2  N   -0.780205
     3  C    0.789736
     4  O   -0.616486
     5  C    0.148003
     6  C   -0.476826
     7  C   -0.356899
     8  C   -0.359374
     9  C   -0.367647
    10  C   -0.172901
    11  C   -0.170168
    12  C   -0.357942
    13  C   -0.311049
    14  C   -0.330216
    15  C    0.090899
    16  C   -0.510106
    17  N   -0.787136
    18  C    0.767168
    19  C   -0.595896
    20  O   -0.613019
    21  C    0.819989
    22  O   -0.640472
    23  N   -0.806309
    24  C   -0.275222
    25  N   -0.876803
    26  C    0.747692
    27  C   -0.592476
    28  O   -0.593108
    29  H    0.185208
    30  H    0.198192
    31  H    0.161177
    32  H    0.390033
    33  H    0.197271
    34  H    0.141250
    35  H    0.210544
    36  H    0.201121
    37  H    0.193437
    38  H    0.189557
    39  H    0.169896
    40  H    0.161285
    41  H    0.185048
    42  H    0.183098
    43  H    0.181127
    44  H    0.175183
    45  H    0.168361
    46  H    0.154449
    47  H    0.195379
    48  H    0.176407
    49  H    0.184755
    50  H    0.185412
    51  H    0.149056
    52  H    0.227992
    53  H    0.389352
    54  H    0.212639
    55  H    0.208740
    56  H    0.177153
    57  H    0.396765
    58  H    0.166247
    59  H    0.195683
    60  H    0.186818
    61  H    0.412069
    62  H    0.218477
    63  H    0.175651
    64  H    0.200067
 Sum of Mulliken atomic charges =   0.00000

 Dipole moment (field-independent basis, Debye):
    X=              3.5549    Y=             -0.9884    Z=             -1.8615  Tot=              4.1327
 Quadrupole moment (field-independent basis, Debye-Ang):
   XX=           -250.5431   YY=           -164.0551   ZZ=           -164.1630
   XY=             -9.9652   XZ=             31.3820   YZ=              9.2799

 Normal termination of Gaussian 09 at Thu Dec  5 16:31:02 2019.
