 Gaussian 09, Revision A.02,
 Gaussian 09:  EM64L-G09RevA.02 11-Jun-2009

 ---------------------------------
 #SP HF/6-31G* Geom=(ModRedundant)
 ---------------------------------

 ------------
 paramfit run
 ------------
 Symbolic Z-matrix:
 Charge =  0 Multiplicity = 1

                         Standard orientation:
 ---------------------------------------------------------------------
 Center     Atomic      Atomic             Coordinates (Angstroms)
 Number     Number       Type             X           Y           Z
 ---------------------------------------------------------------------
      1          6    20001001        6.599643   -1.113956    2.566744
      2          7    20001014        5.607296   -0.783632    1.565056
      3          6    20001002        5.928158   -0.843768    0.251458
      4          8    20001024        6.929903   -1.372318   -0.144631
      5          6    90000001        4.870788   -0.317132   -0.735461
      6          6    90000002        5.532114   -0.018819   -2.085090
      7          6    90000002        3.717729   -1.346845   -0.882931
      8          6    90000002        2.624466   -1.404109    0.199257
      9          6    90000002        1.469354   -0.387660    0.103426
     10          6    20001004        0.716474   -0.434273   -1.205497
     11          6    20001004       -0.428237   -1.048928   -1.455683
     12          6    90000002       -1.265490   -1.857552   -0.493971
     13          6    90000002       -2.503219   -1.117992    0.045145
     14          6    90000002       -3.482568   -0.714631   -1.065301
     15          6    90000002       -4.853132   -0.121642   -0.647492
     16          6    90000002       -5.609172    0.251957   -1.932901
     17          7    20001014       -5.599530   -1.142685    0.074930
     18          6    20001002       -6.784994   -0.858916    0.689102
     19          6    20001001       -7.242302   -1.887093    1.698323
     20          8    20001024       -7.421630    0.129567    0.450903
     21          6    20001002       -4.603869    1.064906    0.310995
     22          8    20001024       -4.419821    0.869420    1.482251
     23          7    20001014       -4.501030    2.295508   -0.235837
     24          6    20001001       -4.318597    3.457003    0.610243
     25          7    20001014        4.225425    0.890220   -0.199512
     26          6    20001002        4.898585    2.036452    0.104920
     27          6    20001001        4.028329    3.260782    0.299319
     28          8    20001024        6.090540    2.074176    0.223067
     29          1    20001035        7.415969   -0.400883    2.576189
     30          1    20001035        7.004056   -2.096006    2.369895
     31          1    20001035        6.121382   -1.120495    3.538123
     32          1    20001029        4.899899   -0.135038    1.820399
     33          1    20001034        6.028169   -0.892708   -2.479020
     34          1    20001034        4.776665    0.309349   -2.792790
     35          1    20001034        6.274340    0.758548   -1.976795
     36          1    20001034        4.197612   -2.322783   -0.904857
     37          1    20001034        3.258344   -1.211985   -1.857127
     38          1    20001034        2.189439   -2.397764    0.144289
     39          1    20001034        3.072939   -1.325841    1.184204
     40          1    20001034        1.843666    0.615571    0.260848
     41          1    20001034        0.796497   -0.588986    0.929601
     42          1    20001033        1.176338    0.103864   -2.018545
     43          1    20001033       -0.822473   -0.968605   -2.456625
     44          1    20001034       -0.666158   -2.175804    0.350413
     45          1    20001034       -1.587923   -2.768257   -0.997205
     46          1    20001034       -2.986695   -1.767393    0.769645
     47          1    20001034       -2.184901   -0.242590    0.595758
     48          1    20001034       -3.696881   -1.579556   -1.689407
     49          1    20001034       -3.000332    0.016576   -1.703371
     50          1    20001034       -5.824698   -0.655526   -2.484810
     51          1    20001034       -5.005505    0.886272   -2.573690
     52          1    20001034       -6.545113    0.744686   -1.716165
     53          1    20001029       -5.045199   -1.826380    0.537522
     54          1    20001034       -8.307154   -1.788910    1.844995
     55          1    20001034       -6.741329   -1.692325    2.641836
     56          1    20001034       -7.005339   -2.898578    1.386668
     57          1    20001029       -4.889141    2.446316   -1.136912
     58          1    20001035       -4.138874    4.318396   -0.019535
     59          1    20001035       -3.465242    3.307980    1.255381
     60          1    20001035       -5.189067    3.643909    1.230810
     61          1    20001029        3.256802    0.988157   -0.408618
     62          1    20001034        4.568219    3.981797    0.895665
     63          1    20001034        3.085541    3.022432    0.778788
     64          1    20001034        3.814726    3.703204   -0.668379
 ---------------------------------------------------------------------

 SCF Done:  E(RHF) =  -1295.61018088     A.U. after   14 cycles

 The electronic state is 1-A.
 Alpha  occ. eigenvalues --  -20.53383 -20.52613 -20.52369 -20.51497 -15.58976
 Alpha  occ. eigenvalues --  -15.58666 -15.58156 -15.57185 -11.35620 -11.34818
 Alpha  occ. eigenvalues --  -11.34441 -11.33518 -11.29297 -11.28790 -11.25778
 Alpha  occ. eigenvalues --  -11.24597 -11.24268 -11.24257 -11.24163 -11.23981
 Alpha  occ. eigenvalues --  -11.23812 -11.23756 -11.23735 -11.23615 -11.23414
 Alpha  occ. eigenvalues --  -11.23006 -11.22426 -11.20766  -1.40304  -1.40038
 Alpha  occ. eigenvalues --   -1.38763  -1.38295  -1.25252  -1.24201  -1.23376
 Alpha  occ. eigenvalues --   -1.21776  -1.12051  -1.09766  -1.07856  -1.05307
 Alpha  occ. eigenvalues --   -1.01816  -0.99936  -0.99357  -0.95960  -0.95350
 Alpha  occ. eigenvalues --   -0.95178  -0.92845  -0.87424  -0.86240  -0.83516
 Alpha  occ. eigenvalues --   -0.81926  -0.80415  -0.80117  -0.77587  -0.76970
 Alpha  occ. eigenvalues --   -0.73493  -0.72105  -0.71231  -0.68920  -0.68858
 Alpha  occ. eigenvalues --   -0.67715  -0.65347  -0.64917  -0.64592  -0.63896
 Alpha  occ. eigenvalues --   -0.62780  -0.62347  -0.62095  -0.61958  -0.61652
 Alpha  occ. eigenvalues --   -0.60946  -0.60172  -0.59746  -0.59507  -0.59317
 Alpha  occ. eigenvalues --   -0.58867  -0.57743  -0.57403  -0.57170  -0.56695
 Alpha  occ. eigenvalues --   -0.56118  -0.55640  -0.55454  -0.54727  -0.54323
 Alpha  occ. eigenvalues --   -0.53928  -0.53523  -0.53002  -0.52504  -0.51934
 Alpha  occ. eigenvalues --   -0.51300  -0.50731  -0.50434  -0.49770  -0.49714
 Alpha  occ. eigenvalues --   -0.49148  -0.47473  -0.47165  -0.45951  -0.42716
 Alpha  occ. eigenvalues --   -0.42221  -0.41714  -0.41646  -0.39542  -0.39029
 Alpha  occ. eigenvalues --   -0.38777  -0.38052  -0.36110
 Alpha virt. eigenvalues --    0.15764   0.18740   0.18968   0.19496   0.20906
 Alpha virt. eigenvalues --    0.21045   0.21402   0.22278   0.22778   0.23026
 Alpha virt. eigenvalues --    0.24484   0.24881   0.25995   0.26630   0.27129

 Mulliken atomic charges:
              1
     1  C   -0.278020
     2  N   -0.781794
     3  C    0.809554
     4  O   -0.621456
     5  C    0.109753
     6  C   -0.470540
     7  C   -0.359465
     8  C   -0.309589
     9  C   -0.381497
    10  C   -0.171284
    11  C   -0.168716
    12  C   -0.358759
    13  C   -0.311433
    14  C   -0.330066
    15  C    0.091079
    16  C   -0.509981
    17  N   -0.787174
    18  C    0.767088
    19  C   -0.595924
    20  O   -0.613107
    21  C    0.819864
    22  O   -0.639816
    23  N   -0.806709
    24  C   -0.275249
    25  N   -0.859783
    26  C    0.746228
    27  C   -0.594321
    28  O   -0.592693
    29  H    0.185475
    30  H    0.198767
    31  H    0.161369
    32  H    0.391305
    33  H    0.197749
    34  H    0.141669
    35  H    0.211963
    36  H    0.200458
    37  H    0.183019
    38  H    0.177377
    39  H    0.179984
    40  H    0.148910
    41  H    0.190059
    42  H    0.171385
    43  H    0.179770
    44  H    0.177914
    45  H    0.168574
    46  H    0.155408
    47  H    0.195524
    48  H    0.176491
    49  H    0.183497
    50  H    0.185521
    51  H    0.148361
    52  H    0.228172
    53  H    0.389577
    54  H    0.212704
    55  H    0.209074
    56  H    0.177299
    57  H    0.396600
    58  H    0.165608
    59  H    0.195702
    60  H    0.187358
    61  H    0.404064
    62  H    0.218573
    63  H    0.178528
    64  H    0.200003
 Sum of Mulliken atomic charges =   0.00000

 Dipole moment (field-independent basis, Debye):
    X=             -4.4933    Y=              0.1238    Z=             -1.2310  Tot=              4.6605
 Quadrupole moment (field-independent basis, Debye-Ang):
   XX=           -260.7990   YY=           -159.2471   ZZ=           -164.9160
   XY=             12.7727   XZ=             16.9718   YZ=             -8.3070

 Normal termination of Gaussian 09 at Thu Dec  5 16:10:20 2019.
