 Gaussian 09, Revision A.02,
 Gaussian 09:  EM64L-G09RevA.02 11-Jun-2009

 ---------------------------------
 #SP HF/6-31G* Geom=(ModRedundant)
 ---------------------------------

 ------------
 paramfit run
 ------------
 Symbolic Z-matrix:
 Charge =  0 Multiplicity = 1

                         Standard orientation:
 ---------------------------------------------------------------------
 Center     Atomic      Atomic             Coordinates (Angstroms)
 Number     Number       Type             X           Y           Z
 ---------------------------------------------------------------------
      1          6    20001001        6.884639    2.250518   -1.795181
      2          7    20001014        6.133321    1.092052   -1.358463
      3          6    20001002        5.258401    1.202743   -0.331636
      4          8    20001024        4.900892    2.263671    0.100065
      5          6    90000001        4.629550   -0.107658    0.175100
      6          6    90000002        4.057461    0.107510    1.580183
      7          6    90000002        3.536524   -0.593712   -0.815177
      8          6    90000002        2.341296   -1.397867   -0.272594
      9          6    90000002        1.165168   -0.608373    0.335730
     10          6    20001004        0.552198    0.403110   -0.604189
     11          6    20001004       -0.537408    0.261826   -1.341450
     12          6    90000002       -1.438006   -0.947074   -1.426540
     13          6    90000002       -2.750874   -0.816253   -0.633552
     14          6    90000002       -3.625916    0.345073   -1.124001
     15          6    90000002       -5.053011    0.481664   -0.532909
     16          6    90000002       -5.687089    1.745386   -1.136567
     17          7    20001014       -5.830977   -0.685825   -0.924404
     18          6    20001002       -7.082678   -0.908118   -0.427523
     19          6    20001001       -7.602302   -2.315159   -0.614684
     20          8    20001024       -7.727818   -0.056100    0.117456
     21          6    20001002       -4.947094    0.498039    1.008920
     22          8    20001024       -4.876555   -0.532753    1.622452
     23          7    20001014       -4.834575    1.701140    1.612136
     24          6    20001001       -4.782680    1.790968    3.056933
     25          7    20001014        5.629008   -1.185813    0.184925
     26          6    20001002        6.780076   -1.144091    0.914975
     27          6    20001001        7.490711   -2.472497    1.071351
     28          8    20001024        7.208197   -0.130389    1.389592
     29          1    20001035        7.581338    2.588695   -1.036764
     30          1    20001035        6.207011    3.059924   -2.024105
     31          1    20001035        7.433187    1.989035   -2.691325
     32          1    20001029        6.550445    0.200826   -1.492660
     33          1    20001034        3.337610    0.911653    1.590273
     34          1    20001034        3.574612   -0.804916    1.917190
     35          1    20001034        4.846026    0.364750    2.272223
     36          1    20001034        4.051951   -1.230310   -1.530927
     37          1    20001034        3.174392    0.262555   -1.375489
     38          1    20001034        1.951263   -1.970647   -1.108907
     39          1    20001034        2.683587   -2.124793    0.456645
     40          1    20001034        1.484025   -0.104425    1.238908
     41          1    20001034        0.419348   -1.332406    0.644537
     42          1    20001033        1.072471    1.345182   -0.666890
     43          1    20001033       -0.830026    1.099929   -1.954410
     44          1    20001034       -0.916702   -1.829622   -1.076089
     45          1    20001034       -1.673388   -1.130112   -2.474245
     46          1    20001034       -3.281454   -1.760863   -0.714605
     47          1    20001034       -2.523117   -0.691884    0.416918
     48          1    20001034       -3.743164    0.277925   -2.203481
     49          1    20001034       -3.108430    1.276268   -0.925420
     50          1    20001034       -5.811342    1.595781   -2.202758
     51          1    20001034       -5.045025    2.609764   -1.002461
     52          1    20001034       -6.657877    1.947486   -0.709410
     53          1    20001029       -5.301867   -1.508976   -1.100973
     54          1    20001034       -8.679468   -2.306016   -0.546198
     55          1    20001034       -7.207903   -2.938421    0.182259
     56          1    20001034       -7.297439   -2.739916   -1.564959
     57          1    20001029       -5.133915    2.507880    1.117286
     58          1    20001035       -4.571584    2.816003    3.332000
     59          1    20001035       -3.994768    1.155571    3.433884
     60          1    20001035       -5.718315    1.484343    3.513354
     61          1    20001029        5.286651   -2.090849   -0.050127
     62          1    20001034        8.530057   -2.287617    1.300592
     63          1    20001034        7.416340   -3.085327    0.180027
     64          1    20001034        7.046520   -3.018996    1.897084
 ---------------------------------------------------------------------

 SCF Done:  E(RHF) =  -1295.61382976     A.U. after   14 cycles

 The electronic state is 1-A.
 Alpha  occ. eigenvalues --  -20.53549 -20.52166 -20.51748 -20.51568 -15.59460
 Alpha  occ. eigenvalues --  -15.58018 -15.57654 -15.57172 -11.35809 -11.34377
 Alpha  occ. eigenvalues --  -11.33823 -11.33619 -11.28887 -11.28696 -11.25105
 Alpha  occ. eigenvalues --  -11.24609 -11.24264 -11.23824 -11.23594 -11.23565
 Alpha  occ. eigenvalues --  -11.22900 -11.22685 -11.22650 -11.22646 -11.22642
 Alpha  occ. eigenvalues --  -11.22462 -11.21868 -11.20744  -1.40463  -1.39502
 Alpha  occ. eigenvalues --   -1.38368  -1.38229  -1.25341  -1.23681  -1.22734
 Alpha  occ. eigenvalues --   -1.21753  -1.11236  -1.09511  -1.07321  -1.04439
 Alpha  occ. eigenvalues --   -1.01358  -0.99398  -0.98881  -0.95707  -0.95207
 Alpha  occ. eigenvalues --   -0.94767  -0.92598  -0.87365  -0.85756  -0.82581
 Alpha  occ. eigenvalues --   -0.81003  -0.80180  -0.79584  -0.76999  -0.76830
 Alpha  occ. eigenvalues --   -0.72320  -0.71457  -0.70668  -0.69220  -0.68223
 Alpha  occ. eigenvalues --   -0.67153  -0.65611  -0.64674  -0.63918  -0.63538
 Alpha  occ. eigenvalues --   -0.62427  -0.62250  -0.62097  -0.61597  -0.61441
 Alpha  occ. eigenvalues --   -0.61130  -0.60197  -0.59447  -0.59026  -0.58787
 Alpha  occ. eigenvalues --   -0.58068  -0.57587  -0.56573  -0.56192  -0.56119
 Alpha  occ. eigenvalues --   -0.55659  -0.55161  -0.54874  -0.54599  -0.54171
 Alpha  occ. eigenvalues --   -0.53320  -0.53205  -0.52364  -0.52280  -0.51922
 Alpha  occ. eigenvalues --   -0.51265  -0.50592  -0.49943  -0.49211  -0.48796
 Alpha  occ. eigenvalues --   -0.48345  -0.47187  -0.46612  -0.45016  -0.42910
 Alpha  occ. eigenvalues --   -0.41920  -0.41648  -0.41185  -0.38969  -0.38944
 Alpha  occ. eigenvalues --   -0.38418  -0.38009  -0.34950
 Alpha virt. eigenvalues --    0.16741   0.18822   0.19524   0.19788   0.21247
 Alpha virt. eigenvalues --    0.21472   0.21879   0.22895   0.23453   0.24219
 Alpha virt. eigenvalues --    0.25242   0.25568   0.26080   0.26206   0.27273

 Mulliken atomic charges:
              1
     1  C   -0.278679
     2  N   -0.779438
     3  C    0.802689
     4  O   -0.621253
     5  C    0.125285
     6  C   -0.483535
     7  C   -0.353127
     8  C   -0.319916
     9  C   -0.353194
    10  C   -0.180852
    11  C   -0.174768
    12  C   -0.354931
    13  C   -0.310360
    14  C   -0.329864
    15  C    0.090723
    16  C   -0.510028
    17  N   -0.787359
    18  C    0.767370
    19  C   -0.595731
    20  O   -0.613406
    21  C    0.820406
    22  O   -0.640691
    23  N   -0.805584
    24  C   -0.275380
    25  N   -0.846102
    26  C    0.742977
    27  C   -0.588883
    28  O   -0.591267
    29  H    0.185210
    30  H    0.197967
    31  H    0.161779
    32  H    0.389989
    33  H    0.197527
    34  H    0.150173
    35  H    0.213382
    36  H    0.167182
    37  H    0.206465
    38  H    0.172517
    39  H    0.155027
    40  H    0.185646
    41  H    0.175921
    42  H    0.190131
    43  H    0.176893
    44  H    0.173647
    45  H    0.163220
    46  H    0.151234
    47  H    0.197596
    48  H    0.174416
    49  H    0.186742
    50  H    0.184135
    51  H    0.149897
    52  H    0.226872
    53  H    0.389273
    54  H    0.211629
    55  H    0.208735
    56  H    0.176390
    57  H    0.396271
    58  H    0.166451
    59  H    0.197676
    60  H    0.185052
    61  H    0.383947
    62  H    0.218457
    63  H    0.176688
    64  H    0.200761
 Sum of Mulliken atomic charges =   0.00000

 Dipole moment (field-independent basis, Debye):
    X=              1.8741    Y=             -4.7266    Z=             -4.2432  Tot=              6.6226
 Quadrupole moment (field-independent basis, Debye-Ang):
   XX=           -200.3793   YY=           -159.4723   ZZ=           -170.7775
   XY=            -31.6359   XZ=             -5.3415   YZ=              2.1203

 Normal termination of Gaussian 09 at Thu Dec  5 16:14:33 2019.
