 Gaussian 09, Revision A.02,
 Gaussian 09:  EM64L-G09RevA.02 11-Jun-2009

 ---------------------------------
 #SP HF/6-31G* Geom=(ModRedundant)
 ---------------------------------

 ------------
 paramfit run
 ------------
 Symbolic Z-matrix:
 Charge =  0 Multiplicity = 1

                         Standard orientation:
 ---------------------------------------------------------------------
 Center     Atomic      Atomic             Coordinates (Angstroms)
 Number     Number       Type             X           Y           Z
 ---------------------------------------------------------------------
      1          6    20001001        4.566592    0.047136    3.213391
      2          7    20001014        4.340917   -0.054043    1.786479
      3          6    20001002        5.215961   -0.736429    1.011394
      4          8    20001024        6.058774   -1.456817    1.470148
      5          6    90000001        4.992022   -0.652664   -0.509204
      6          6    90000002        6.276111   -1.058593   -1.240080
      7          6    90000002        3.794493   -1.550519   -0.923188
      8          6    90000002        2.649931   -1.778693    0.080579
      9          6    90000002        1.555843   -0.696776    0.175761
     10          6    20001004        0.864097   -0.405009   -1.135208
     11          6    20001004       -0.298371   -0.876695   -1.555847
     12          6    90000002       -1.221514   -1.825132   -0.829193
     13          6    90000002       -2.442551   -1.148451   -0.180551
     14          6    90000002       -3.345821   -0.448838   -1.205029
     15          6    90000002       -4.701372    0.120367   -0.711942
     16          6    90000002       -5.375215    0.816017   -1.905867
     17          7    20001014       -5.533810   -0.987297   -0.262879
     18          6    20001002       -6.730292   -0.774035    0.358418
     19          6    20001001       -7.288262   -1.970198    1.095080
     20          8    20001024       -7.301966    0.280148    0.326389
     21          6    20001002       -4.435337    1.046832    0.496202
     22          8    20001024       -4.317277    0.585267    1.599356
     23          7    20001014       -4.242068    2.359310    0.243163
     24          6    20001001       -4.038718    3.290481    1.333930
     25          7    20001014        4.587912    0.707555   -0.893821
     26          6    20001002        5.354261    1.814520   -0.677005
     27          6    20001001        4.935793    3.047725   -1.450444
     28          8    20001024        6.284301    1.819029    0.078737
     29          1    20001035        5.455026    0.624841    3.441187
     30          1    20001035        4.681758   -0.940385    3.635601
     31          1    20001035        3.706287    0.523513    3.666486
     32          1    20001029        3.844458    0.686871    1.349603
     33          1    20001034        6.595165   -2.047928   -0.949645
     34          1    20001034        6.102164   -1.042462   -2.311864
     35          1    20001034        7.076720   -0.373196   -1.003055
     36          1    20001034        4.222733   -2.525056   -1.147043
     37          1    20001034        3.389300   -1.174627   -1.857427
     38          1    20001034        2.166176   -2.706467   -0.210692
     39          1    20001034        3.054975   -1.948901    1.072719
     40          1    20001034        1.974709    0.221338    0.566889
     41          1    20001034        0.835104   -1.034360    0.912245
     42          1    20001033        1.389522    0.270605   -1.790638
     43          1    20001033       -0.640195   -0.551973   -2.526142
     44          1    20001034       -0.680277   -2.359341   -0.057733
     45          1    20001034       -1.567450   -2.579678   -1.534589
     46          1    20001034       -2.993223   -1.911220    0.362879
     47          1    20001034       -2.104816   -0.438518    0.562929
     48          1    20001034       -3.575794   -1.138706   -2.014182
     49          1    20001034       -2.796145    0.374433   -1.645976
     50          1    20001034       -5.612045    0.068788   -2.654293
     51          1    20001034       -4.709394    1.538083   -2.367046
     52          1    20001034       -6.293038    1.305363   -1.616248
     53          1    20001029       -5.038738   -1.789595    0.053241
     54          1    20001034       -8.352182   -1.841249    1.223563
     55          1    20001034       -6.822752   -2.021097    2.074791
     56          1    20001034       -7.090550   -2.899978    0.572778
     57          1    20001029       -4.578773    2.730077   -0.613850
     58          1    20001035       -3.784321    4.257331    0.919923
     59          1    20001035       -3.225774    2.949433    1.957978
     60          1    20001035       -4.926404    3.388554    1.950492
     61          1    20001029        3.927136    0.765349   -1.636507
     62          1    20001034        5.318440    3.922893   -0.945830
     63          1    20001034        3.858823    3.124435   -1.549454
     64          1    20001034        5.366144    3.006860   -2.445899
 ---------------------------------------------------------------------

 SCF Done:  E(RHF) =  -1295.61246191     A.U. after   14 cycles

 The electronic state is 1-A.
 Alpha  occ. eigenvalues --  -20.53566 -20.52474 -20.52184 -20.51757 -15.59488
 Alpha  occ. eigenvalues --  -15.58500 -15.58000 -15.57036 -11.35820 -11.34677
 Alpha  occ. eigenvalues --  -11.34262 -11.33649 -11.29129 -11.28920 -11.25609
 Alpha  occ. eigenvalues --  -11.24683 -11.24308 -11.24061 -11.23892 -11.23593
 Alpha  occ. eigenvalues --  -11.23433 -11.23380 -11.23119 -11.23118 -11.22872
 Alpha  occ. eigenvalues --  -11.22680 -11.22304 -11.20837  -1.40486  -1.39875
 Alpha  occ. eigenvalues --   -1.38602  -1.38509  -1.25375  -1.24043  -1.23209
 Alpha  occ. eigenvalues --   -1.21906  -1.11607  -1.09577  -1.07746  -1.04848
 Alpha  occ. eigenvalues --   -1.01637  -0.99720  -0.99185  -0.95724  -0.95343
 Alpha  occ. eigenvalues --   -0.95121  -0.92637  -0.87272  -0.86059  -0.83547
 Alpha  occ. eigenvalues --   -0.81969  -0.80022  -0.79410  -0.77425  -0.77072
 Alpha  occ. eigenvalues --   -0.72871  -0.71866  -0.71114  -0.68875  -0.68666
 Alpha  occ. eigenvalues --   -0.67565  -0.65481  -0.65060  -0.64556  -0.64261
 Alpha  occ. eigenvalues --   -0.62646  -0.62450  -0.61945  -0.61808  -0.61498
 Alpha  occ. eigenvalues --   -0.60555  -0.60099  -0.59369  -0.59156  -0.59047
 Alpha  occ. eigenvalues --   -0.58904  -0.57885  -0.57063  -0.56965  -0.56434
 Alpha  occ. eigenvalues --   -0.55673  -0.55540  -0.55296  -0.54782  -0.54451
 Alpha  occ. eigenvalues --   -0.53769  -0.53215  -0.52857  -0.52236  -0.52061
 Alpha  occ. eigenvalues --   -0.51262  -0.50566  -0.50293  -0.49676  -0.49311
 Alpha  occ. eigenvalues --   -0.48519  -0.47456  -0.47015  -0.45645  -0.42775
 Alpha  occ. eigenvalues --   -0.42049  -0.41852  -0.41503  -0.39378  -0.39040
 Alpha  occ. eigenvalues --   -0.38858  -0.38027  -0.35673
 Alpha virt. eigenvalues --    0.15988   0.18197   0.18940   0.19156   0.20705
 Alpha virt. eigenvalues --    0.21103   0.21476   0.22439   0.22909   0.23723
 Alpha virt. eigenvalues --    0.24589   0.25694   0.25820   0.26733   0.27060

 Mulliken atomic charges:
              1
     1  C   -0.277644
     2  N   -0.780278
     3  C    0.789129
     4  O   -0.618291
     5  C    0.117714
     6  C   -0.473855
     7  C   -0.342199
     8  C   -0.317962
     9  C   -0.341782
    10  C   -0.173274
    11  C   -0.170648
    12  C   -0.357004
    13  C   -0.311524
    14  C   -0.329570
    15  C    0.091228
    16  C   -0.509738
    17  N   -0.787353
    18  C    0.767074
    19  C   -0.595870
    20  O   -0.613444
    21  C    0.820054
    22  O   -0.639194
    23  N   -0.806758
    24  C   -0.275304
    25  N   -0.845465
    26  C    0.743770
    27  C   -0.590093
    28  O   -0.591070
    29  H    0.185948
    30  H    0.196904
    31  H    0.162782
    32  H    0.398835
    33  H    0.197140
    34  H    0.145007
    35  H    0.211932
    36  H    0.193197
    37  H    0.161405
    38  H    0.167283
    39  H    0.205325
    40  H    0.153293
    41  H    0.179742
    42  H    0.153063
    43  H    0.174894
    44  H    0.180594
    45  H    0.165972
    46  H    0.154801
    47  H    0.196982
    48  H    0.175430
    49  H    0.182823
    50  H    0.184960
    51  H    0.147672
    52  H    0.227837
    53  H    0.389864
    54  H    0.212269
    55  H    0.209479
    56  H    0.177123
    57  H    0.396018
    58  H    0.164900
    59  H    0.196917
    60  H    0.186988
    61  H    0.386461
    62  H    0.218732
    63  H    0.176033
    64  H    0.200745
 Sum of Mulliken atomic charges =   0.00000

 Dipole moment (field-independent basis, Debye):
    X=             -3.0068    Y=              1.1990    Z=             -5.2365  Tot=              6.1563
 Quadrupole moment (field-independent basis, Debye-Ang):
   XX=           -246.8034   YY=           -157.3632   ZZ=           -167.4385
   XY=             16.7947   XZ=             -9.1797   YZ=             -3.0868

 Normal termination of Gaussian 09 at Thu Dec  5 16:47:40 2019.
