 Gaussian 09, Revision A.02,
 Gaussian 09:  EM64L-G09RevA.02 11-Jun-2009

 ---------------------------------
 #SP HF/6-31G* Geom=(ModRedundant)
 ---------------------------------

 ------------
 paramfit run
 ------------
 Symbolic Z-matrix:
 Charge =  0 Multiplicity = 1

                         Standard orientation:
 ---------------------------------------------------------------------
 Center     Atomic      Atomic             Coordinates (Angstroms)
 Number     Number       Type             X           Y           Z
 ---------------------------------------------------------------------
      1          6    20001001       -3.761277    2.885294    0.549878
      2          7    20001014       -4.111882    1.480228    0.560419
      3          6    20001002       -4.325073    0.828939   -0.606835
      4          8    20001024       -4.022575    1.294857   -1.670396
      5          6    90000001       -4.855068   -0.612178   -0.498805
      6          6    90000002       -5.472906   -1.033271   -1.836265
      7          6    90000002       -3.710458   -1.572024   -0.074346
      8          6    90000002       -2.467512   -1.696141   -0.973965
      9          6    90000002       -1.366103   -0.628033   -0.823355
     10          6    20001004       -0.814979   -0.506654    0.578003
     11          6    20001004        0.295396   -1.043708    1.056957
     12          6    90000002        1.286793   -1.912551    0.320750
     13          6    90000002        2.571315   -1.182287   -0.110860
     14          6    90000002        3.364160   -0.625022    1.079000
     15          6    90000002        4.765775   -0.022237    0.801925
     16          6    90000002        5.312652    0.514383    2.134747
     17          7    20001014        5.637315   -1.081014    0.311067
     18          6    20001002        6.893098   -0.813659   -0.152171
     19          6    20001001        7.521621   -1.921436   -0.966169
     20          8    20001024        7.461534    0.219904    0.066393
     21          6    20001002        4.631007    1.046598   -0.306296
     22          8    20001024        4.628032    0.722673   -1.463445
     23          7    20001014        4.416329    2.322114    0.082232
     24          6    20001001        4.331583    3.380544   -0.903032
     25          7    20001014       -5.846511   -0.714230    0.581962
     26          6    20001002       -7.008458   -0.001070    0.612874
     27          6    20001001       -8.042611   -0.499480    1.600920
     28          8    20001024       -7.196997    0.957969   -0.080550
     29          1    20001035       -4.572398    3.500535    0.177708
     30          1    20001035       -2.896409    3.040932   -0.078216
     31          1    20001035       -3.519132    3.188721    1.560645
     32          1    20001029       -4.598013    1.137445    1.355694
     33          1    20001034       -4.760501   -0.942127   -2.641935
     34          1    20001034       -5.805143   -2.065109   -1.771711
     35          1    20001034       -6.319020   -0.405269   -2.074238
     36          1    20001034       -4.162882   -2.559496   -0.015762
     37          1    20001034       -3.404464   -1.317406    0.935514
     38          1    20001034       -2.019926   -2.659685   -0.748422
     39          1    20001034       -2.766632   -1.739640   -2.016082
     40          1    20001034       -1.738703    0.336883   -1.141904
     41          1    20001034       -0.573052   -0.886137   -1.516381
     42          1    20001033       -1.404230    0.093635    1.252207
     43          1    20001033        0.534426   -0.843210    2.089636
     44          1    20001034        0.827918   -2.341706   -0.561702
     45          1    20001034        1.554365   -2.751661    0.961759
     46          1    20001034        3.173637   -1.882931   -0.682418
     47          1    20001034        2.315760   -0.383021   -0.794011
     48          1    20001034        3.505714   -1.410551    1.818216
     49          1    20001034        2.773782    0.147960    1.556810
     50          1    20001034        5.467227   -0.320906    2.807785
     51          1    20001034        4.604332    1.186312    2.608218
     52          1    20001034        6.257344    1.020391    2.003396
     53          1    20001029        5.175683   -1.831660   -0.149516
     54          1    20001034        8.593548   -1.794818   -0.966874
     55          1    20001034        7.161435   -1.847042   -1.987862
     56          1    20001034        7.267238   -2.903937   -0.583593
     57          1    20001029        4.662307    2.581993    1.008119
     58          1    20001035        4.038128    4.294622   -0.403766
     59          1    20001035        3.587624    3.129729   -1.644816
     60          1    20001035        5.279422    3.537868   -1.407615
     61          1    20001029       -5.838029   -1.568713    1.093170
     62          1    20001034       -8.720827    0.308443    1.833849
     63          1    20001034       -7.591942   -0.873091    2.513534
     64          1    20001034       -8.609034   -1.306300    1.147039
 ---------------------------------------------------------------------

 SCF Done:  E(RHF) =  -1295.62207663     A.U. after   14 cycles

 The electronic state is 1-A.
 Alpha  occ. eigenvalues --  -20.53653 -20.52039 -20.51851 -20.51576 -15.59611
 Alpha  occ. eigenvalues --  -15.57883 -15.57543 -15.57514 -11.35972 -11.34247
 Alpha  occ. eigenvalues --  -11.33863 -11.33663 -11.29027 -11.28557 -11.24960
 Alpha  occ. eigenvalues --  -11.24911 -11.24363 -11.24002 -11.23389 -11.22692
 Alpha  occ. eigenvalues --  -11.22550 -11.22509 -11.22344 -11.22227 -11.22023
 Alpha  occ. eigenvalues --  -11.21798 -11.21594 -11.20854  -1.40590  -1.39355
 Alpha  occ. eigenvalues --   -1.38709  -1.38077  -1.25435  -1.23540  -1.22595
 Alpha  occ. eigenvalues --   -1.22088  -1.10761  -1.09258  -1.07186  -1.04223
 Alpha  occ. eigenvalues --   -1.01231  -0.99322  -0.98732  -0.95528  -0.95124
 Alpha  occ. eigenvalues --   -0.94569  -0.92185  -0.87257  -0.85700  -0.82841
 Alpha  occ. eigenvalues --   -0.81343  -0.79482  -0.78763  -0.77188  -0.76861
 Alpha  occ. eigenvalues --   -0.71897  -0.71291  -0.71102  -0.68942  -0.67980
 Alpha  occ. eigenvalues --   -0.66710  -0.65860  -0.64528  -0.63949  -0.63706
 Alpha  occ. eigenvalues --   -0.62590  -0.62333  -0.61767  -0.61410  -0.61150
 Alpha  occ. eigenvalues --   -0.60919  -0.59900  -0.59337  -0.58713  -0.58425
 Alpha  occ. eigenvalues --   -0.58253  -0.57817  -0.56576  -0.56395  -0.56212
 Alpha  occ. eigenvalues --   -0.55489  -0.54849  -0.54739  -0.54563  -0.53955
 Alpha  occ. eigenvalues --   -0.53084  -0.52814  -0.52468  -0.52148  -0.51544
 Alpha  occ. eigenvalues --   -0.51029  -0.50312  -0.49765  -0.49262  -0.48542
 Alpha  occ. eigenvalues --   -0.48349  -0.46927  -0.46390  -0.44535  -0.42872
 Alpha  occ. eigenvalues --   -0.41943  -0.41491  -0.41054  -0.39289  -0.38824
 Alpha  occ. eigenvalues --   -0.38327  -0.38266  -0.34512
 Alpha virt. eigenvalues --    0.17326   0.18797   0.19665   0.19985   0.20242
 Alpha virt. eigenvalues --    0.21605   0.21980   0.23161   0.23246   0.23942
 Alpha virt. eigenvalues --    0.25298   0.25648   0.26542   0.27120   0.27642

 Mulliken atomic charges:
              1
     1  C   -0.279685
     2  N   -0.783399
     3  C    0.821872
     4  O   -0.628235
     5  C    0.102382
     6  C   -0.472645
     7  C   -0.334317
     8  C   -0.312165
     9  C   -0.373572
    10  C   -0.178862
    11  C   -0.177010
    12  C   -0.353487
    13  C   -0.310566
    14  C   -0.329072
    15  C    0.091049
    16  C   -0.509589
    17  N   -0.787620
    18  C    0.767304
    19  C   -0.595693
    20  O   -0.613868
    21  C    0.820605
    22  O   -0.639306
    23  N   -0.805964
    24  C   -0.275606
    25  N   -0.843066
    26  C    0.744540
    27  C   -0.588668
    28  O   -0.591758
    29  H    0.187037
    30  H    0.198303
    31  H    0.162168
    32  H    0.391300
    33  H    0.198938
    34  H    0.144089
    35  H    0.212495
    36  H    0.161729
    37  H    0.181743
    38  H    0.164449
    39  H    0.180169
    40  H    0.213211
    41  H    0.175279
    42  H    0.180207
    43  H    0.169593
    44  H    0.176866
    45  H    0.160154
    46  H    0.151068
    47  H    0.199588
    48  H    0.173072
    49  H    0.185055
    50  H    0.183459
    51  H    0.148343
    52  H    0.226632
    53  H    0.389775
    54  H    0.211164
    55  H    0.209520
    56  H    0.176243
    57  H    0.395261
    58  H    0.164847
    59  H    0.199878
    60  H    0.184970
    61  H    0.382629
    62  H    0.218612
    63  H    0.177171
    64  H    0.201381
 Sum of Mulliken atomic charges =   0.00000

 Dipole moment (field-independent basis, Debye):
    X=             -2.7648    Y=             -4.4710    Z=              6.4354  Tot=              8.3096
 Quadrupole moment (field-independent basis, Debye-Ang):
   XX=           -194.6242   YY=           -155.8870   ZZ=           -173.3861
   XY=             13.9787   XZ=            -18.0441   YZ=              9.8693

 Normal termination of Gaussian 09 at Thu Dec  5 15:59:38 2019.
