 Gaussian 09, Revision A.02,
 Gaussian 09:  EM64L-G09RevA.02 11-Jun-2009

 ---------------------------------
 #SP HF/6-31G* Geom=(ModRedundant)
 ---------------------------------

 ------------
 paramfit run
 ------------
 Symbolic Z-matrix:
 Charge =  0 Multiplicity = 1

                         Standard orientation:
 ---------------------------------------------------------------------
 Center     Atomic      Atomic             Coordinates (Angstroms)
 Number     Number       Type             X           Y           Z
 ---------------------------------------------------------------------
      1          6    20001001        3.909722    1.232136    2.837386
      2          7    20001014        3.975381    0.624639    1.524419
      3          6    20001002        4.887673   -0.343240    1.273337
      4          8    20001024        5.505441   -0.889550    2.144919
      5          6    90000001        5.000746   -0.813786   -0.187891
      6          6    90000002        6.338683   -1.531713   -0.393681
      7          6    90000002        3.801604   -1.732602   -0.547665
      8          6    90000002        2.623858   -1.843679    0.437327
      9          6    90000002        1.545306   -0.743190    0.389517
     10          6    20001004        0.898076   -0.575193   -0.965160
     11          6    20001004       -0.258833   -1.071162   -1.373000
     12          6    90000002       -1.218796   -1.929550   -0.584713
     13          6    90000002       -2.447473   -1.175015   -0.045643
     14          6    90000002       -3.308006   -0.569712   -1.162786
     15          6    90000002       -4.668215    0.064088   -0.771922
     16          6    90000002       -5.294435    0.645395   -2.049959
     17          7    20001014       -5.531812   -0.981760   -0.240947
     18          6    20001002       -6.742731   -0.691338    0.317968
     19          6    20001001       -7.342100   -1.800040    1.152439
     20          8    20001024       -7.295814    0.361840    0.162864
     21          6    20001002       -4.423373    1.103429    0.345462
     22          8    20001024       -4.346047    0.753306    1.492355
     23          7    20001014       -4.201093    2.381218   -0.031140
     24          6    20001001       -4.015303    3.414303    0.967067
     25          7    20001014        4.882436    0.329007   -1.105201
     26          6    20001002        5.735144    1.393222   -1.102302
     27          6    20001001        5.666277    2.275576   -2.331459
     28          8    20001024        6.477706    1.624145   -0.190481
     29          1    20001035        4.803442    1.802513    3.062961
     30          1    20001035        3.793273    0.465153    3.588984
     31          1    20001035        3.049887    1.889302    2.871580
     32          1    20001029        3.691082    1.178709    0.750813
     33          1    20001034        6.446816   -2.360368    0.289378
     34          1    20001034        6.396731   -1.902288   -1.412770
     35          1    20001034        7.160716   -0.853103   -0.218535
     36          1    20001034        4.220318   -2.730295   -0.659506
     37          1    20001034        3.430838   -1.446945   -1.527058
     38          1    20001034        2.133900   -2.789459    0.225054
     39          1    20001034        2.996111   -1.918897    1.453765
     40          1    20001034        1.967260    0.203861    0.700019
     41          1    20001034        0.797358   -0.995571    1.132962
     42          1    20001033        1.453940    0.024213   -1.667899
     43          1    20001033       -0.566025   -0.840872   -2.381147
     44          1    20001034       -0.709781   -2.390850    0.252886
     45          1    20001034       -1.555751   -2.746366   -1.221791
     46          1    20001034       -3.026640   -1.872028    0.553617
     47          1    20001034       -2.120589   -0.398655    0.633505
     48          1    20001034       -3.524892   -1.334134   -1.905856
     49          1    20001034       -2.731916    0.197782   -1.666197
     50          1    20001034       -5.520939   -0.169910   -2.727125
     51          1    20001034       -4.603323    1.308629   -2.559729
     52          1    20001034       -6.212381    1.173506   -1.839688
     53          1    20001029       -5.059675   -1.754831    0.169127
     54          1    20001034       -8.407135   -1.644692    1.233841
     55          1    20001034       -6.907084   -1.758616    2.146507
     56          1    20001034       -7.144091   -2.780071    0.732063
     57          1    20001029       -4.505810    2.668610   -0.931065
     58          1    20001035       -3.732771    4.331278    0.466813
     59          1    20001035       -3.227149    3.126767    1.647335
     60          1    20001035       -4.919354    3.585541    1.542499
     61          1    20001029        4.406499    0.145658   -1.960429
     62          1    20001034        6.054762    3.252299   -2.082332
     63          1    20001034        4.655719    2.370416   -2.712678
     64          1    20001034        6.285043    1.846499   -3.113010
 ---------------------------------------------------------------------

 SCF Done:  E(RHF) =  -1295.60604602     A.U. after   14 cycles

 The electronic state is 1-A.
 Alpha  occ. eigenvalues --  -20.53619 -20.52360 -20.52036 -20.51772 -15.59560
 Alpha  occ. eigenvalues --  -15.58360 -15.57870 -15.57158 -11.35857 -11.34563
 Alpha  occ. eigenvalues --  -11.34117 -11.33732 -11.28979 -11.28944 -11.25478
 Alpha  occ. eigenvalues --  -11.24802 -11.24351 -11.23883 -11.23871 -11.23140
 Alpha  occ. eigenvalues --  -11.23095 -11.22941 -11.22878 -11.22771 -11.22717
 Alpha  occ. eigenvalues --  -11.22184 -11.22180 -11.20891  -1.40541  -1.39743
 Alpha  occ. eigenvalues --   -1.38584  -1.38472  -1.25456  -1.23909  -1.23070
 Alpha  occ. eigenvalues --   -1.22084  -1.11289  -1.09475  -1.07601  -1.04641
 Alpha  occ. eigenvalues --   -1.01523  -0.99631  -0.99070  -0.95570  -0.95458
 Alpha  occ. eigenvalues --   -0.94972  -0.92463  -0.87172  -0.85939  -0.83611
 Alpha  occ. eigenvalues --   -0.81960  -0.79883  -0.79124  -0.77289  -0.77219
 Alpha  occ. eigenvalues --   -0.72561  -0.71707  -0.71129  -0.68801  -0.68457
 Alpha  occ. eigenvalues --   -0.67334  -0.65746  -0.65028  -0.64385  -0.64126
 Alpha  occ. eigenvalues --   -0.62624  -0.62379  -0.61990  -0.61756  -0.61420
 Alpha  occ. eigenvalues --   -0.60769  -0.59841  -0.59271  -0.59142  -0.58922
 Alpha  occ. eigenvalues --   -0.58575  -0.57848  -0.56992  -0.56778  -0.56314
 Alpha  occ. eigenvalues --   -0.55568  -0.55391  -0.55130  -0.54792  -0.54317
 Alpha  occ. eigenvalues --   -0.53605  -0.52990  -0.52684  -0.52194  -0.52029
 Alpha  occ. eigenvalues --   -0.51214  -0.50579  -0.50159  -0.49502  -0.49017
 Alpha  occ. eigenvalues --   -0.48303  -0.47254  -0.46838  -0.45316  -0.42823
 Alpha  occ. eigenvalues --   -0.42039  -0.41907  -0.41386  -0.39243  -0.39050
 Alpha  occ. eigenvalues --   -0.38718  -0.38008  -0.35241
 Alpha virt. eigenvalues --    0.16487   0.18500   0.19126   0.19288   0.20590
 Alpha virt. eigenvalues --    0.21218   0.21568   0.22485   0.23055   0.24024
 Alpha virt. eigenvalues --    0.24576   0.25541   0.26030   0.26774   0.27361

 Mulliken atomic charges:
              1
     1  C   -0.277208
     2  N   -0.781960
     3  C    0.799773
     4  O   -0.622320
     5  C    0.137636
     6  C   -0.476772
     7  C   -0.346763
     8  C   -0.328254
     9  C   -0.341190
    10  C   -0.173588
    11  C   -0.173094
    12  C   -0.355741
    13  C   -0.311197
    14  C   -0.329269
    15  C    0.091201
    16  C   -0.509656
    17  N   -0.787435
    18  C    0.767099
    19  C   -0.595817
    20  O   -0.613668
    21  C    0.820185
    22  O   -0.639079
    23  N   -0.806661
    24  C   -0.275254
    25  N   -0.850956
    26  C    0.743809
    27  C   -0.589361
    28  O   -0.590580
    29  H    0.187280
    30  H    0.198353
    31  H    0.162123
    32  H    0.392429
    33  H    0.197262
    34  H    0.145285
    35  H    0.211068
    36  H    0.190659
    37  H    0.159602
    38  H    0.169101
    39  H    0.197371
    40  H    0.177516
    41  H    0.175176
    42  H    0.155132
    43  H    0.171655
    44  H    0.180243
    45  H    0.163808
    46  H    0.153775
    47  H    0.197365
    48  H    0.174748
    49  H    0.183057
    50  H    0.184590
    51  H    0.147605
    52  H    0.227466
    53  H    0.389970
    54  H    0.211937
    55  H    0.209572
    56  H    0.176954
    57  H    0.395796
    58  H    0.164650
    59  H    0.197288
    60  H    0.186646
    61  H    0.385090
    62  H    0.218692
    63  H    0.175683
    64  H    0.201170
 Sum of Mulliken atomic charges =   0.00000

 Dipole moment (field-independent basis, Debye):
    X=             -1.6322    Y=              0.0088    Z=             -6.5720  Tot=              6.7717
 Quadrupole moment (field-independent basis, Debye-Ang):
   XX=           -234.4277   YY=           -156.9430   ZZ=           -169.8370
   XY=             11.6330   XZ=            -19.6190   YZ=             -3.0209

 Normal termination of Gaussian 09 at Thu Dec  5 16:37:06 2019.
