 Gaussian 09, Revision A.02,
 Gaussian 09:  EM64L-G09RevA.02 11-Jun-2009

 ---------------------------------
 #SP HF/6-31G* Geom=(ModRedundant)
 ---------------------------------

 ------------
 paramfit run
 ------------
 Symbolic Z-matrix:
 Charge =  0 Multiplicity = 1

                         Standard orientation:
 ---------------------------------------------------------------------
 Center     Atomic      Atomic             Coordinates (Angstroms)
 Number     Number       Type             X           Y           Z
 ---------------------------------------------------------------------
      1          6    20001001       -3.443746    2.808098   -0.291861
      2          7    20001014       -3.849937    1.457791    0.038176
      3          6    20001002       -4.355082    0.650669   -0.923849
      4          8    20001024       -4.281294    0.914609   -2.092025
      5          6    90000001       -4.915193   -0.704260   -0.454989
      6          6    90000002       -5.841588   -1.277143   -1.532689
      7          6    90000002       -3.751500   -1.679515   -0.128957
      8          6    90000002       -2.515025   -1.699990   -1.045661
      9          6    90000002       -1.429546   -0.631763   -0.806362
     10          6    20001004       -0.867610   -0.629729    0.595958
     11          6    20001004        0.255576   -1.189578    1.015216
     12          6    90000002        1.253981   -1.970717    0.194993
     13          6    90000002        2.522619   -1.182585   -0.177794
     14          6    90000002        3.317308   -0.723159    1.051967
     15          6    90000002        4.706481   -0.074110    0.820496
     16          6    90000002        5.256884    0.347561    2.192610
     17          7    20001014        5.590342   -1.068799    0.228117
     18          6    20001002        6.837377   -0.739163   -0.218316
     19          6    20001001        7.476086   -1.757190   -1.135090
     20          8    20001024        7.391154    0.279501    0.089574
     21          6    20001002        4.544439    1.089124   -0.184172
     22          8    20001024        4.536047    0.872309   -1.366056
     23          7    20001014        4.312914    2.320003    0.321114
     24          6    20001001        4.202181    3.462479   -0.562451
     25          7    20001014       -5.637461   -0.548390    0.816021
     26          6    20001002       -6.725936    0.257794    0.974009
     27          6    20001001       -7.529990    0.012775    2.234002
     28          8    20001024       -7.021386    1.107562    0.182337
     29          1    20001035       -4.287814    3.424021   -0.580199
     30          1    20001035       -2.738639    2.787475   -1.109859
     31          1    20001035       -2.962923    3.245786    0.573929
     32          1    20001029       -4.157607    1.288269    0.967093
     33          1    20001034       -5.328382   -1.376225   -2.477006
     34          1    20001034       -6.199612   -2.253353   -1.219526
     35          1    20001034       -6.688433   -0.624418   -1.686737
     36          1    20001034       -4.187481   -2.675670   -0.157542
     37          1    20001034       -3.440379   -1.513155    0.897594
     38          1    20001034       -2.050003   -2.672458   -0.912702
     39          1    20001034       -2.822953   -1.653080   -2.085062
     40          1    20001034       -1.820469    0.351831   -1.032384
     41          1    20001034       -0.638847   -0.812086   -1.526162
     42          1    20001033       -1.460201   -0.103558    1.326775
     43          1    20001033        0.500821   -1.080314    2.060050
     44          1    20001034        0.793970   -2.325073   -0.719495
     45          1    20001034        1.540836   -2.860288    0.754433
     46          1    20001034        3.130829   -1.817839   -0.815686
     47          1    20001034        2.248031   -0.328633   -0.782937
     48          1    20001034        3.478208   -1.570472    1.715070
     49          1    20001034        2.719021   -0.007111    1.603038
     50          1    20001034        5.430993   -0.543030    2.785160
     51          1    20001034        4.542256    0.961408    2.731015
     52          1    20001034        6.192098    0.879257    2.100891
     53          1    20001029        5.136598   -1.781857   -0.295691
     54          1    20001034        8.545795   -1.613046   -1.132419
     55          1    20001034        7.105401   -1.595791   -2.142894
     56          1    20001034        7.241005   -2.774680   -0.842116
     57          1    20001029        4.563177    2.498268    1.264989
     58          1    20001035        3.898702    4.322040    0.020623
     59          1    20001035        3.455568    3.268047   -1.318355
     60          1    20001035        5.142711    3.681164   -1.057766
     61          1    20001029       -5.553661   -1.308696    1.453563
     62          1    20001034       -8.097404    0.902610    2.464671
     63          1    20001034       -6.901413   -0.248951    3.077767
     64          1    20001034       -8.223254   -0.804059    2.060888
 ---------------------------------------------------------------------

 SCF Done:  E(RHF) =  -1295.61867497     A.U. after   14 cycles

 The electronic state is 1-A.
 Alpha  occ. eigenvalues --  -20.53641 -20.52119 -20.51864 -20.51694 -15.59581
 Alpha  occ. eigenvalues --  -15.58013 -15.57602 -15.57432 -11.35934 -11.34325
 Alpha  occ. eigenvalues --  -11.33786 -11.33780 -11.28976 -11.28666 -11.25106
 Alpha  occ. eigenvalues --  -11.24898 -11.24351 -11.23898 -11.23512 -11.22680
 Alpha  occ. eigenvalues --  -11.22620 -11.22569 -11.22468 -11.22450 -11.22262
 Alpha  occ. eigenvalues --  -11.21903 -11.21733 -11.20894  -1.40571  -1.39452
 Alpha  occ. eigenvalues --   -1.38677  -1.38178  -1.25419  -1.23632  -1.22724
 Alpha  occ. eigenvalues --   -1.22071  -1.10863  -1.09287  -1.07287  -1.04315
 Alpha  occ. eigenvalues --   -1.01289  -0.99399  -0.98816  -0.95516  -0.95216
 Alpha  occ. eigenvalues --   -0.94663  -0.92212  -0.87176  -0.85793  -0.83076
 Alpha  occ. eigenvalues --   -0.81452  -0.79582  -0.78740  -0.77180  -0.76974
 Alpha  occ. eigenvalues --   -0.72056  -0.71355  -0.71177  -0.68810  -0.68084
 Alpha  occ. eigenvalues --   -0.66908  -0.66011  -0.64659  -0.63966  -0.63838
 Alpha  occ. eigenvalues --   -0.62567  -0.62328  -0.61811  -0.61490  -0.61169
 Alpha  occ. eigenvalues --   -0.60931  -0.59834  -0.59436  -0.58812  -0.58438
 Alpha  occ. eigenvalues --   -0.58273  -0.57822  -0.56746  -0.56449  -0.56232
 Alpha  occ. eigenvalues --   -0.55495  -0.54964  -0.54815  -0.54580  -0.54038
 Alpha  occ. eigenvalues --   -0.53203  -0.52553  -0.52472  -0.52181  -0.51664
 Alpha  occ. eigenvalues --   -0.50975  -0.50612  -0.49862  -0.49280  -0.48543
 Alpha  occ. eigenvalues --   -0.48367  -0.46992  -0.46515  -0.44749  -0.42881
 Alpha  occ. eigenvalues --   -0.42011  -0.41596  -0.41137  -0.39206  -0.38932
 Alpha  occ. eigenvalues --   -0.38388  -0.38265  -0.34711
 Alpha virt. eigenvalues --    0.17113   0.18800   0.19567   0.19924   0.20516
 Alpha virt. eigenvalues --    0.21508   0.21891   0.23029   0.23163   0.23932
 Alpha virt. eigenvalues --    0.25248   0.25615   0.26367   0.27150   0.27404

 Mulliken atomic charges:
              1
     1  C   -0.280931
     2  N   -0.781595
     3  C    0.810628
     4  O   -0.626386
     5  C    0.115781
     6  C   -0.470709
     7  C   -0.339846
     8  C   -0.324407
     9  C   -0.363626
    10  C   -0.172380
    11  C   -0.176491
    12  C   -0.354058
    13  C   -0.310734
    14  C   -0.329069
    15  C    0.091137
    16  C   -0.509563
    17  N   -0.787595
    18  C    0.767239
    19  C   -0.595730
    20  O   -0.613865
    21  C    0.820469
    22  O   -0.638992
    23  N   -0.806254
    24  C   -0.275512
    25  N   -0.846317
    26  C    0.743878
    27  C   -0.588587
    28  O   -0.591419
    29  H    0.188308
    30  H    0.196687
    31  H    0.163074
    32  H    0.390931
    33  H    0.197732
    34  H    0.143983
    35  H    0.211739
    36  H    0.172316
    37  H    0.172295
    38  H    0.165014
    39  H    0.190899
    40  H    0.208922
    41  H    0.175908
    42  H    0.168981
    43  H    0.169616
    44  H    0.178287
    45  H    0.160878
    46  H    0.151914
    47  H    0.199157
    48  H    0.173433
    49  H    0.184249
    50  H    0.183737
    51  H    0.147962
    52  H    0.226854
    53  H    0.389897
    54  H    0.211339
    55  H    0.209662
    56  H    0.176426
    57  H    0.395328
    58  H    0.164509
    59  H    0.199250
    60  H    0.185557
    61  H    0.383545
    62  H    0.218459
    63  H    0.176752
    64  H    0.201337
 Sum of Mulliken atomic charges =   0.00000

 Dipole moment (field-independent basis, Debye):
    X=             -1.7580    Y=             -3.8686    Z=              6.8952  Tot=              8.0994
 Quadrupole moment (field-independent basis, Debye-Ang):
   XX=           -203.1418   YY=           -156.3104   ZZ=           -173.2559
   XY=              9.1964   XZ=            -22.1214   YZ=              9.3277

 Normal termination of Gaussian 09 at Thu Dec  5 16:10:23 2019.
