 Gaussian 09, Revision A.02,
 Gaussian 09:  EM64L-G09RevA.02 11-Jun-2009

 ---------------------------------
 #SP HF/6-31G* Geom=(ModRedundant)
 ---------------------------------

 ------------
 paramfit run
 ------------
 Symbolic Z-matrix:
 Charge =  0 Multiplicity = 1

                         Standard orientation:
 ---------------------------------------------------------------------
 Center     Atomic      Atomic             Coordinates (Angstroms)
 Number     Number       Type             X           Y           Z
 ---------------------------------------------------------------------
      1          6    20001001        4.640253    2.818938   -1.479843
      2          7    20001014        4.730040    1.415044   -1.135944
      3          6    20001002        4.479141    1.013291    0.132028
      4          8    20001024        3.966407    1.729854    0.946514
      5          6    90000001        4.759818   -0.466723    0.448514
      6          6    90000002        4.880208   -0.653341    1.964602
      7          6    90000002        3.639582   -1.362244   -0.147065
      8          6    90000002        2.402174   -1.680619    0.711476
      9          6    90000002        1.273131   -0.631827    0.755448
     10          6    20001004        0.716085   -0.270970   -0.601667
     11          6    20001004       -0.381003   -0.740113   -1.173557
     12          6    90000002       -1.347986   -1.754107   -0.610958
     13          6    90000002       -2.650092   -1.148390   -0.056709
     14          6    90000002       -3.459629   -0.403983   -1.126953
     15          6    90000002       -4.875812    0.101621   -0.748223
     16          6    90000002       -5.439231    0.858199   -1.962143
     17          7    20001014       -5.718573   -1.051160   -0.461204
     18          6    20001002       -6.979882   -0.905446    0.039717
     19          6    20001001       -7.577755   -2.159089    0.636147
     20          8    20001024       -7.575383    0.135589    0.011987
     21          6    20001002       -4.766457    0.953313    0.536840
     22          8    20001024       -4.752642    0.423780    1.615419
     23          7    20001014       -4.585738    2.283442    0.388249
     24          6    20001001       -4.526380    3.146058    1.550390
     25          7    20001014        5.988948   -0.910905   -0.224815
     26          6    20001002        7.214964   -0.355462   -0.005632
     27          6    20001001        8.388760   -1.168624   -0.510696
     28          8    20001024        7.357176    0.704198    0.535696
     29          1    20001035        5.402140    3.406067   -0.980086
     30          1    20001035        3.670914    3.202648   -1.197227
     31          1    20001035        4.758258    2.920575   -2.551336
     32          1    20001029        5.359050    0.855720   -1.662999
     33          1    20001034        3.991655   -0.310580    2.472462
     34          1    20001034        5.032998   -1.704987    2.188059
     35          1    20001034        5.716188   -0.086888    2.348261
     36          1    20001034        4.117329   -2.310386   -0.383719
     37          1    20001034        3.324957   -0.935558   -1.094287
     38          1    20001034        1.979243   -2.598052    0.312647
     39          1    20001034        2.704521   -1.905872    1.728934
     40          1    20001034        1.621261    0.268035    1.245772
     41          1    20001034        0.488501   -1.032538    1.387605
     42          1    20001033        1.288151    0.457351   -1.153395
     43          1    20001033       -0.627330   -0.360720   -2.152917
     44          1    20001034       -0.876276   -2.325124    0.179544
     45          1    20001034       -1.595067   -2.468739   -1.395080
     46          1    20001034       -3.232841   -1.956946    0.375745
     47          1    20001034       -2.413902   -0.480924    0.761541
     48          1    20001034       -3.582332   -1.044763   -1.997516
     49          1    20001034       -2.890499    0.458247   -1.454062
     50          1    20001034       -5.573519    0.156095   -2.776758
     51          1    20001034       -4.749569    1.623369   -2.303119
     52          1    20001034       -6.396442    1.307112   -1.743141
     53          1    20001029       -5.236662   -1.861073   -0.144160
     54          1    20001034       -8.652601   -2.062506    0.657107
     55          1    20001034       -7.217463   -2.263162    1.655208
     56          1    20001034       -7.298796   -3.048324    0.081328
     57          1    20001029       -4.840328    2.701522   -0.475291
     58          1    20001035       -4.257775    4.143200    1.227152
     59          1    20001035       -3.774603    2.783380    2.235899
     60          1    20001035       -5.476913    3.184048    2.072693
     61          1    20001029        5.981411   -1.849644   -0.556868
     62          1    20001034        9.234548   -0.511291   -0.650443
     63          1    20001034        8.164812   -1.678990   -1.440709
     64          1    20001034        8.650439   -1.915520    0.231915
 ---------------------------------------------------------------------

 SCF Done:  E(RHF) =  -1295.61779280     A.U. after   14 cycles

 The electronic state is 1-A.
 Alpha  occ. eigenvalues --  -20.53611 -20.52004 -20.51871 -20.51517 -15.59578
 Alpha  occ. eigenvalues --  -15.57801 -15.57475 -15.57389 -11.35910 -11.34214
 Alpha  occ. eigenvalues --  -11.33825 -11.33602 -11.28996 -11.28501 -11.24864
 Alpha  occ. eigenvalues --  -11.24836 -11.24337 -11.23960 -11.23336 -11.22751
 Alpha  occ. eigenvalues --  -11.22550 -11.22492 -11.22326 -11.22227 -11.22044
 Alpha  occ. eigenvalues --  -11.21790 -11.21728 -11.20824  -1.40549  -1.39309
 Alpha  occ. eigenvalues --   -1.38647  -1.38029  -1.25438  -1.23498  -1.22515
 Alpha  occ. eigenvalues --   -1.21989  -1.10801  -1.09285  -1.07154  -1.04185
 Alpha  occ. eigenvalues --   -1.01212  -0.99259  -0.98689  -0.95495  -0.95146
 Alpha  occ. eigenvalues --   -0.94540  -0.92305  -0.87406  -0.85652  -0.82584
 Alpha  occ. eigenvalues --   -0.81312  -0.79441  -0.78956  -0.77077  -0.76796
 Alpha  occ. eigenvalues --   -0.71896  -0.71251  -0.70910  -0.69075  -0.67954
 Alpha  occ. eigenvalues --   -0.66692  -0.65565  -0.64508  -0.63968  -0.63566
 Alpha  occ. eigenvalues --   -0.62697  -0.62298  -0.61840  -0.61388  -0.61197
 Alpha  occ. eigenvalues --   -0.60912  -0.59740  -0.59277  -0.58684  -0.58655
 Alpha  occ. eigenvalues --   -0.58311  -0.57693  -0.56503  -0.56286  -0.56115
 Alpha  occ. eigenvalues --   -0.55536  -0.54852  -0.54696  -0.54506  -0.53893
 Alpha  occ. eigenvalues --   -0.53124  -0.52960  -0.52208  -0.52084  -0.51538
 Alpha  occ. eigenvalues --   -0.51127  -0.50261  -0.49748  -0.49109  -0.48635
 Alpha  occ. eigenvalues --   -0.48197  -0.47070  -0.46351  -0.44524  -0.42813
 Alpha  occ. eigenvalues --   -0.42067  -0.41442  -0.41017  -0.39252  -0.38767
 Alpha  occ. eigenvalues --   -0.38200  -0.38181  -0.34504
 Alpha virt. eigenvalues --    0.17275   0.18856   0.19712   0.19920   0.20502
 Alpha virt. eigenvalues --    0.21652   0.22029   0.23133   0.23563   0.23850
 Alpha virt. eigenvalues --    0.25192   0.25653   0.26633   0.26940   0.27775

 Mulliken atomic charges:
              1
     1  C   -0.278629
     2  N   -0.782339
     3  C    0.810110
     4  O   -0.623046
     5  C    0.124854
     6  C   -0.481778
     7  C   -0.344254
     8  C   -0.311986
     9  C   -0.368432
    10  C   -0.177254
    11  C   -0.177599
    12  C   -0.353617
    13  C   -0.310405
    14  C   -0.329375
    15  C    0.090919
    16  C   -0.509746
    17  N   -0.787586
    18  C    0.767368
    19  C   -0.595672
    20  O   -0.613736
    21  C    0.820670
    22  O   -0.640004
    23  N   -0.805515
    24  C   -0.275562
    25  N   -0.849760
    26  C    0.744586
    27  C   -0.589171
    28  O   -0.591609
    29  H    0.186134
    30  H    0.197248
    31  H    0.162224
    32  H    0.390802
    33  H    0.199432
    34  H    0.145158
    35  H    0.213577
    36  H    0.149637
    37  H    0.198252
    38  H    0.165206
    39  H    0.175758
    40  H    0.209985
    41  H    0.172893
    42  H    0.183491
    43  H    0.171744
    44  H    0.175576
    45  H    0.160478
    46  H    0.150561
    47  H    0.199508
    48  H    0.173059
    49  H    0.186274
    50  H    0.183345
    51  H    0.149123
    52  H    0.226534
    53  H    0.389537
    54  H    0.211137
    55  H    0.209222
    56  H    0.176124
    57  H    0.395488
    58  H    0.165778
    59  H    0.199676
    60  H    0.184412
    61  H    0.384034
    62  H    0.218750
    63  H    0.177252
    64  H    0.201160
 Sum of Mulliken atomic charges =   0.00000

 Dipole moment (field-independent basis, Debye):
    X=              3.4179    Y=             -5.0330    Z=             -5.4952  Tot=              8.1982
 Quadrupole moment (field-independent basis, Debye-Ang):
   XX=           -188.5859   YY=           -155.6576   ZZ=           -173.0562
   XY=            -20.1803   XZ=            -11.1339   YZ=             -8.2782

 Normal termination of Gaussian 09 at Thu Dec  5 16:44:53 2019.
