 Gaussian 09, Revision A.02,
 Gaussian 09:  EM64L-G09RevA.02 11-Jun-2009

 ---------------------------------
 #SP HF/6-31G* Geom=(ModRedundant)
 ---------------------------------

 ------------
 paramfit run
 ------------
 Symbolic Z-matrix:
 Charge =  0 Multiplicity = 1

                         Standard orientation:
 ---------------------------------------------------------------------
 Center     Atomic      Atomic             Coordinates (Angstroms)
 Number     Number       Type             X           Y           Z
 ---------------------------------------------------------------------
      1          6    20001001       -7.472171   -2.475136    0.230498
      2          7    20001014       -6.460721   -1.544145   -0.224992
      3          6    20001002       -5.551289   -1.054237    0.649669
      4          8    20001024       -5.393778   -1.518724    1.744744
      5          6    90000001       -4.621483    0.052711    0.120981
      6          6    90000002       -3.999512    0.807215    1.300692
      7          6    90000002       -3.531447   -0.559776   -0.800044
      8          6    90000002       -2.355439    0.323258   -1.254895
      9          6    90000002       -1.168456    0.488711   -0.285187
     10          6    20001004       -0.530044   -0.815024    0.133124
     11          6    20001004        0.561501   -1.374095   -0.363590
     12          6    90000002        1.439335   -0.847171   -1.473327
     13          6    90000002        2.749203   -0.198101   -0.991125
     14          6    90000002        3.649534   -1.178003   -0.226854
     15          6    90000002        5.075048   -0.706421    0.160657
     16          6    90000002        5.737172   -1.838653    0.962589
     17          7    20001014        5.833091   -0.469198   -1.060256
     18          6    20001002        7.076999    0.091889   -1.029738
     19          6    20001001        7.570819    0.620208   -2.357077
     20          8    20001024        7.734719    0.163592   -0.029036
     21          6    20001002        4.959288    0.631198    0.926229
     22          8    20001024        4.864981    1.667317    0.324986
     23          7    20001014        4.865840    0.571688    2.272225
     24          6    20001001        4.806137    1.789630    3.054052
     25          7    20001014       -5.366085    0.976637   -0.746981
     26          6    20001002       -6.438998    1.707875   -0.330063
     27          6    20001001       -6.837756    2.844973   -1.247733
     28          8    20001024       -7.033463    1.464436    0.681614
     29          1    20001035       -8.162991   -2.011845    0.925537
     30          1    20001035       -7.001372   -3.313757    0.722215
     31          1    20001035       -8.021483   -2.836842   -0.629606
     32          1    20001029       -6.688903   -0.965676   -0.999325
     33          1    20001034       -3.467718    0.135832    1.957481
     34          1    20001034       -3.309513    1.557473    0.926191
     35          1    20001034       -4.767895    1.294891    1.882658
     36          1    20001034       -4.054230   -0.883460   -1.697344
     37          1    20001034       -3.149300   -1.460154   -0.329337
     38          1    20001034       -1.970930   -0.123140   -2.167309
     39          1    20001034       -2.716390    1.308658   -1.530712
     40          1    20001034       -1.483562    1.028069    0.598649
     41          1    20001034       -0.438687    1.121757   -0.777654
     42          1    20001033       -1.031763   -1.335631    0.932724
     43          1    20001033        0.874148   -2.312692    0.066582
     44          1    20001034        0.898930   -0.119783   -2.066905
     45          1    20001034        1.678080   -1.670074   -2.145952
     46          1    20001034        3.262126    0.198291   -1.862996
     47          1    20001034        2.516938    0.655856   -0.368517
     48          1    20001034        3.772598   -2.086789   -0.812085
     49          1    20001034        3.148667   -1.464985    0.690275
     50          1    20001034        5.865575   -2.695635    0.311686
     51          1    20001034        5.110900   -2.151364    1.791671
     52          1    20001034        6.708810   -1.549035    1.333776
     53          1    20001029        5.289498   -0.231288   -1.858139
     54          1    20001034        8.647486    0.691844   -2.330341
     55          1    20001034        7.159308    1.613584   -2.508696
     56          1    20001034        7.264160   -0.008202   -3.186199
     57          1    20001029        5.183829   -0.248362    2.732346
     58          1    20001035        4.612889    1.528479    4.086223
     59          1    20001035        4.003735    2.416003    2.692895
     60          1    20001035        5.732698    2.351598    2.995487
     61          1    20001029       -4.859385    1.338047   -1.524275
     62          1    20001034       -7.871425    3.097724   -1.061675
     63          1    20001034       -6.705466    2.593771   -2.294131
     64          1    20001034       -6.224558    3.712715   -1.026793
 ---------------------------------------------------------------------

 SCF Done:  E(RHF) =  -1295.61637753     A.U. after   14 cycles

 The electronic state is 1-A.
 Alpha  occ. eigenvalues --  -20.53488 -20.52259 -20.51875 -20.51540 -15.59361
 Alpha  occ. eigenvalues --  -15.58145 -15.57758 -15.57131 -11.35778 -11.34470
 Alpha  occ. eigenvalues --  -11.33948 -11.33595 -11.28898 -11.28816 -11.25236
 Alpha  occ. eigenvalues --  -11.24572 -11.24225 -11.24016 -11.23835 -11.23705
 Alpha  occ. eigenvalues --  -11.23086 -11.22992 -11.22907 -11.22810 -11.22728
 Alpha  occ. eigenvalues --  -11.22722 -11.21971 -11.20732  -1.40408  -1.39612
 Alpha  occ. eigenvalues --   -1.38340  -1.38325  -1.25274  -1.23788  -1.22861
 Alpha  occ. eigenvalues --   -1.21714  -1.11422  -1.09592  -1.07417  -1.04609
 Alpha  occ. eigenvalues --   -1.01462  -0.99526  -0.99001  -0.95817  -0.95209
 Alpha  occ. eigenvalues --   -0.94869  -0.92669  -0.87326  -0.85842  -0.82778
 Alpha  occ. eigenvalues --   -0.80886  -0.80541  -0.79705  -0.77117  -0.76777
 Alpha  occ. eigenvalues --   -0.72524  -0.71582  -0.70710  -0.69233  -0.68367
 Alpha  occ. eigenvalues --   -0.67303  -0.65644  -0.64776  -0.64014  -0.63326
 Alpha  occ. eigenvalues --   -0.62480  -0.62281  -0.62144  -0.61724  -0.61588
 Alpha  occ. eigenvalues --   -0.61236  -0.60317  -0.59522  -0.59210  -0.58890
 Alpha  occ. eigenvalues --   -0.57999  -0.57553  -0.56668  -0.56422  -0.56235
 Alpha  occ. eigenvalues --   -0.55697  -0.55218  -0.54975  -0.54436  -0.54119
 Alpha  occ. eigenvalues --   -0.53564  -0.53267  -0.52766  -0.52608  -0.51947
 Alpha  occ. eigenvalues --   -0.51543  -0.50479  -0.50050  -0.49476  -0.48934
 Alpha  occ. eigenvalues --   -0.48420  -0.47181  -0.46770  -0.45298  -0.42843
 Alpha  occ. eigenvalues --   -0.41823  -0.41764  -0.41281  -0.39083  -0.38951
 Alpha  occ. eigenvalues --   -0.38542  -0.37951  -0.35195
 Alpha virt. eigenvalues --    0.16509   0.18934   0.19413   0.19802   0.21263
 Alpha virt. eigenvalues --    0.21406   0.21796   0.22741   0.23221   0.23830
 Alpha virt. eigenvalues --    0.24979   0.25829   0.26033   0.26436   0.27233

 Mulliken atomic charges:
              1
     1  C   -0.278479
     2  N   -0.780847
     3  C    0.812055
     4  O   -0.621780
     5  C    0.103462
     6  C   -0.479792
     7  C   -0.341886
     8  C   -0.321647
     9  C   -0.352488
    10  C   -0.180038
    11  C   -0.173573
    12  C   -0.355391
    13  C   -0.310508
    14  C   -0.329953
    15  C    0.090718
    16  C   -0.510058
    17  N   -0.787286
    18  C    0.767343
    19  C   -0.595769
    20  O   -0.613293
    21  C    0.820323
    22  O   -0.640724
    23  N   -0.805740
    24  C   -0.275351
    25  N   -0.843637
    26  C    0.744027
    27  C   -0.589573
    28  O   -0.591825
    29  H    0.184984
    30  H    0.198384
    31  H    0.161580
    32  H    0.389847
    33  H    0.194110
    34  H    0.148922
    35  H    0.212933
    36  H    0.173670
    37  H    0.204417
    38  H    0.177109
    39  H    0.144776
    40  H    0.184585
    41  H    0.176621
    42  H    0.187082
    43  H    0.178142
    44  H    0.173450
    45  H    0.164431
    46  H    0.151800
    47  H    0.197162
    48  H    0.174952
    49  H    0.186367
    50  H    0.184483
    51  H    0.149789
    52  H    0.227114
    53  H    0.389245
    54  H    0.211874
    55  H    0.208653
    56  H    0.176554
    57  H    0.396422
    58  H    0.166429
    59  H    0.197216
    60  H    0.185429
    61  H    0.387515
    62  H    0.218388
    63  H    0.176632
    64  H    0.200641
 Sum of Mulliken atomic charges =   0.00000

 Dipole moment (field-independent basis, Debye):
    X=             -0.7046    Y=             -0.1618    Z=             -5.7889  Tot=              5.8339
 Quadrupole moment (field-independent basis, Debye-Ang):
   XX=           -210.3732   YY=           -170.6718   ZZ=           -160.3510
   XY=            -18.3016   XZ=             29.9396   YZ=             -1.7110

 Normal termination of Gaussian 09 at Thu Dec  5 16:04:24 2019.
