 Gaussian 09, Revision A.02,
 Gaussian 09:  EM64L-G09RevA.02 11-Jun-2009

 ---------------------------------
 #SP HF/6-31G* Geom=(ModRedundant)
 ---------------------------------

 ------------
 paramfit run
 ------------
 Symbolic Z-matrix:
 Charge =  0 Multiplicity = 1

                         Standard orientation:
 ---------------------------------------------------------------------
 Center     Atomic      Atomic             Coordinates (Angstroms)
 Number     Number       Type             X           Y           Z
 ---------------------------------------------------------------------
      1          6    20001001        6.207304   -1.002946    2.791290
      2          7    20001014        5.350175   -0.707004    1.662134
      3          6    20001002        5.818693   -0.857792    0.401236
      4          8    20001024        6.839975   -1.438545    0.157402
      5          6    90000001        4.902350   -0.363207   -0.732381
      6          6    90000002        5.725850   -0.168429   -2.009782
      7          6    90000002        3.737955   -1.366452   -0.954389
      8          6    90000002        2.640494   -1.486320    0.118385
      9          6    90000002        1.497544   -0.452129    0.090934
     10          6    20001004        0.748552   -0.398298   -1.219941
     11          6    20001004       -0.402350   -0.980448   -1.515374
     12          6    90000002       -1.252108   -1.844382   -0.614663
     13          6    90000002       -2.482994   -1.129781   -0.028290
     14          6    90000002       -3.453896   -0.638309   -1.110287
     15          6    90000002       -4.818896   -0.059869   -0.655504
     16          6    90000002       -5.566266    0.411512   -1.913554
     17          7    20001014       -5.579465   -1.120038   -0.008119
     18          6    20001002       -6.763613   -0.865942    0.621395
     19          6    20001001       -7.236154   -1.956671    1.555108
     20          8    20001024       -7.387972    0.144196    0.451279
     21          6    20001002       -4.559128    1.053786    0.384216
     22          8    20001024       -4.381267    0.774780    1.539399
     23          7    20001014       -4.440233    2.318293   -0.074984
     24          6    20001001       -4.247204    3.415599    0.850686
     25          7    20001014        4.242964    0.893174   -0.347483
     26          6    20001002        4.916996    2.036231   -0.033202
     27          6    20001001        4.074554    3.294824   -0.014374
     28          8    20001024        6.087819    2.046871    0.222141
     29          1    20001035        7.042085   -0.314471    2.855256
     30          1    20001035        6.596315   -2.006563    2.701031
     31          1    20001035        5.619804   -0.935390    3.698281
     32          1    20001029        4.641680   -0.023704    1.794121
     33          1    20001034        6.232538   -1.079013   -2.290920
     34          1    20001034        5.069734    0.136791   -2.819466
     35          1    20001034        6.477932    0.592461   -1.860299
     36          1    20001034        4.206587   -2.344054   -1.043279
     37          1    20001034        3.283419   -1.158448   -1.917930
     38          1    20001034        2.194188   -2.468513   -0.007013
     39          1    20001034        3.086549   -1.482352    1.107523
     40          1    20001034        1.882910    0.533172    0.319053
     41          1    20001034        0.819648   -0.702757    0.899312
     42          1    20001033        1.217325    0.189886   -1.992214
     43          1    20001033       -0.792285   -0.825742   -2.509245
     44          1    20001034       -0.659324   -2.227894    0.206915
     45          1    20001034       -1.583373   -2.713838   -1.181147
     46          1    20001034       -2.976368   -1.822484    0.647816
     47          1    20001034       -2.156412   -0.298803    0.582978
     48          1    20001034       -3.676114   -1.454926   -1.793873
     49          1    20001034       -2.961104    0.129969   -1.694457
     50          1    20001034       -5.790430   -0.452586   -2.528099
     51          1    20001034       -4.953164    1.081902   -2.506903
     52          1    20001034       -6.497161    0.898877   -1.665264
     53          1    20001029       -5.034630   -1.840865    0.406941
     54          1    20001034       -8.300283   -1.856447    1.705597
     55          1    20001034       -6.736117   -1.834221    2.511190
     56          1    20001034       -7.009868   -2.946625    1.174101
     57          1    20001029       -4.823560    2.536256   -0.964288
     58          1    20001035       -4.055424    4.316718    0.283125
     59          1    20001035       -3.397789    3.211824    1.485978
     60          1    20001035       -5.117521    3.568921    1.480602
     61          1    20001029        3.309228    1.005798   -0.674593
     62          1    20001034        4.567231    4.035621    0.598375
     63          1    20001034        3.074629    3.113953    0.363763
     64          1    20001034        3.990503    3.682283   -1.024628
 ---------------------------------------------------------------------

 SCF Done:  E(RHF) =  -1295.61356728     A.U. after   14 cycles

 The electronic state is 1-A.
 Alpha  occ. eigenvalues --  -20.53486 -20.52589 -20.52340 -20.51562 -15.59217
 Alpha  occ. eigenvalues --  -15.58644 -15.58129 -15.57227 -11.35734 -11.34794
 Alpha  occ. eigenvalues --  -11.34413 -11.33587 -11.29269 -11.28865 -11.25759
 Alpha  occ. eigenvalues --  -11.24651 -11.24233 -11.24230 -11.23922 -11.23847
 Alpha  occ. eigenvalues --  -11.23782 -11.23740 -11.23659 -11.23354 -11.23242
 Alpha  occ. eigenvalues --  -11.22982 -11.22407 -11.20796  -1.40405  -1.40012
 Alpha  occ. eigenvalues --   -1.38737  -1.38359  -1.25327  -1.24174  -1.23354
 Alpha  occ. eigenvalues --   -1.21864  -1.11932  -1.09703  -1.07851  -1.05188
 Alpha  occ. eigenvalues --   -1.01765  -0.99914  -0.99327  -0.95902  -0.95341
 Alpha  occ. eigenvalues --   -0.95208  -0.92768  -0.87397  -0.86209  -0.83507
 Alpha  occ. eigenvalues --   -0.81875  -0.80268  -0.80045  -0.77563  -0.77027
 Alpha  occ. eigenvalues --   -0.73313  -0.72054  -0.71279  -0.68905  -0.68871
 Alpha  occ. eigenvalues --   -0.67696  -0.65385  -0.64914  -0.64558  -0.64064
 Alpha  occ. eigenvalues --   -0.62770  -0.62397  -0.62061  -0.61910  -0.61568
 Alpha  occ. eigenvalues --   -0.60793  -0.60141  -0.59700  -0.59550  -0.59283
 Alpha  occ. eigenvalues --   -0.58950  -0.57720  -0.57350  -0.57121  -0.56636
 Alpha  occ. eigenvalues --   -0.56040  -0.55616  -0.55431  -0.54697  -0.54378
 Alpha  occ. eigenvalues --   -0.53915  -0.53479  -0.52974  -0.52456  -0.51935
 Alpha  occ. eigenvalues --   -0.51331  -0.50735  -0.50413  -0.49769  -0.49701
 Alpha  occ. eigenvalues --   -0.48983  -0.47469  -0.47152  -0.45860  -0.42783
 Alpha  occ. eigenvalues --   -0.42193  -0.41723  -0.41622  -0.39517  -0.39004
 Alpha  occ. eigenvalues --   -0.38887  -0.38055  -0.35998
 Alpha virt. eigenvalues --    0.15890   0.18672   0.18947   0.19165   0.20841
 Alpha virt. eigenvalues --    0.20988   0.21341   0.22384   0.22757   0.23135
 Alpha virt. eigenvalues --    0.24684   0.24812   0.25986   0.26673   0.27076

 Mulliken atomic charges:
              1
     1  C   -0.277912
     2  N   -0.782270
     3  C    0.812743
     4  O   -0.620944
     5  C    0.098234
     6  C   -0.469908
     7  C   -0.356132
     8  C   -0.313000
     9  C   -0.377064
    10  C   -0.173826
    11  C   -0.169483
    12  C   -0.358353
    13  C   -0.311532
    14  C   -0.329926
    15  C    0.091112
    16  C   -0.509919
    17  N   -0.787206
    18  C    0.767079
    19  C   -0.595915
    20  O   -0.613194
    21  C    0.819895
    22  O   -0.639645
    23  N   -0.806775
    24  C   -0.275257
    25  N   -0.849443
    26  C    0.745751
    27  C   -0.592754
    28  O   -0.592117
    29  H    0.185577
    30  H    0.199026
    31  H    0.161576
    32  H    0.391434
    33  H    0.197806
    34  H    0.142726
    35  H    0.212340
    36  H    0.199094
    37  H    0.179860
    38  H    0.174214
    39  H    0.190238
    40  H    0.154498
    41  H    0.186844
    42  H    0.165415
    43  H    0.178620
    44  H    0.178887
    45  H    0.168045
    46  H    0.155310
    47  H    0.195806
    48  H    0.176326
    49  H    0.183194
    50  H    0.185450
    51  H    0.148154
    52  H    0.228100
    53  H    0.389663
    54  H    0.212618
    55  H    0.209156
    56  H    0.177294
    57  H    0.396478
    58  H    0.165366
    59  H    0.195913
    60  H    0.187346
    61  H    0.398271
    62  H    0.218729
    63  H    0.178101
    64  H    0.200287
 Sum of Mulliken atomic charges =   0.00000

 Dipole moment (field-independent basis, Debye):
    X=             -4.3581    Y=              0.5092    Z=             -2.0258  Tot=              4.8328
 Quadrupole moment (field-independent basis, Debye-Ang):
   XX=           -260.1162   YY=           -158.4153   ZZ=           -165.1471
   XY=             14.0245   XZ=             12.2263   YZ=             -7.4809

 Normal termination of Gaussian 09 at Thu Dec  5 16:05:02 2019.
