 Gaussian 09, Revision A.02,
 Gaussian 09:  EM64L-G09RevA.02 11-Jun-2009

 ---------------------------------
 #SP HF/6-31G* Geom=(ModRedundant)
 ---------------------------------

 ------------
 paramfit run
 ------------
 Symbolic Z-matrix:
 Charge =  0 Multiplicity = 1

                         Standard orientation:
 ---------------------------------------------------------------------
 Center     Atomic      Atomic             Coordinates (Angstroms)
 Number     Number       Type             X           Y           Z
 ---------------------------------------------------------------------
      1          6    20001001       -3.500064    2.267084   -1.838099
      2          7    20001014       -3.781190    1.189791   -0.912003
      3          6    20001002       -4.606622    0.181933   -1.279420
      4          8    20001024       -4.949344    0.010437   -2.416467
      5          6    90000001       -4.982297   -0.829029   -0.181144
      6          6    90000002       -6.239261   -1.598559   -0.600317
      7          6    90000002       -3.792478   -1.789207    0.090871
      8          6    90000002       -2.584652   -1.770906   -0.863307
      9          6    90000002       -1.510891   -0.688076   -0.637139
     10          6    20001004       -0.906154   -0.701667    0.747197
     11          6    20001004        0.238894   -1.249000    1.121428
     12          6    90000002        1.224880   -1.997118    0.256614
     13          6    90000002        2.467663   -1.179841   -0.139765
     14          6    90000002        3.291810   -0.728893    1.073637
     15          6    90000002        4.661803   -0.051091    0.812195
     16          6    90000002        5.246851    0.355164    2.174591
     17          7    20001014        5.544016   -1.018893    0.174551
     18          6    20001002        6.770843   -0.659005   -0.303392
     19          6    20001001        7.398468   -1.648573   -1.258194
     20          8    20001024        7.316199    0.363561    0.006590
     21          6    20001002        4.448873    1.127240   -0.165006
     22          8    20001024        4.407825    0.931947   -1.349955
     23          7    20001014        4.211838    2.344362    0.370168
     24          6    20001001        4.054273    3.500643   -0.487963
     25          7    20001014       -5.203174   -0.138327    1.097751
     26          6    20001002       -6.152958    0.822157    1.284975
     27          6    20001001       -6.459790    1.149551    2.731622
     28          8    20001024       -6.698686    1.377893    0.374218
     29          1    20001035       -4.382798    2.860804   -2.046008
     30          1    20001035       -3.132254    1.861349   -2.769130
     31          1    20001035       -2.736745    2.902828   -1.407371
     32          1    20001029       -3.740795    1.399872    0.057801
     33          1    20001034       -6.096804   -2.092818   -1.549183
     34          1    20001034       -6.476145   -2.342136    0.154810
     35          1    20001034       -7.076326   -0.923748   -0.704618
     36          1    20001034       -4.211899   -2.792277    0.056849
     37          1    20001034       -3.452804   -1.636124    1.110414
     38          1    20001034       -2.099063   -2.737209   -0.762897
     39          1    20001034       -2.925207   -1.710498   -1.891775
     40          1    20001034       -1.925485    0.292369   -0.832600
     41          1    20001034       -0.739744   -0.841107   -1.383964
     42          1    20001033       -1.484938   -0.199574    1.505500
     43          1    20001033        0.514279   -1.154501    2.160175
     44          1    20001034        0.743100   -2.342834   -0.649938
     45          1    20001034        1.544117   -2.891516    0.790218
     46          1    20001034        3.066800   -1.792402   -0.807732
     47          1    20001034        2.159892   -0.319996   -0.720086
     48          1    20001034        3.487635   -1.585185    1.715470
     49          1    20001034        2.698526   -0.033801    1.656055
     50          1    20001034        5.454449   -0.542866    2.744701
     51          1    20001034        4.538669    0.946248    2.745974
     52          1    20001034        6.169495    0.905014    2.064437
     53          1    20001029        5.086712   -1.730225   -0.348510
     54          1    20001034        8.465107   -1.485479   -1.285408
     55          1    20001034        6.994195   -1.475405   -2.251020
     56          1    20001034        7.190092   -2.675271   -0.977387
     57          1    20001029        4.487939    2.509774    1.309165
     58          1    20001035        3.754124    4.343864    0.120156
     59          1    20001035        3.288197    3.306797   -1.224290
     60          1    20001035        4.975194    3.745055   -1.007505
     61          1    20001029       -4.908795   -0.633780    1.909795
     62          1    20001034       -6.895606    2.136752    2.781337
     63          1    20001034       -5.575996    1.108110    3.358312
     64          1    20001034       -7.180648    0.433827    3.113595
 ---------------------------------------------------------------------

 SCF Done:  E(RHF) =  -1295.60452321     A.U. after   14 cycles

 The electronic state is 1-A.
 Alpha  occ. eigenvalues --  -20.53647 -20.52244 -20.51887 -20.51882 -15.59580
 Alpha  occ. eigenvalues --  -15.58213 -15.57739 -15.57303 -11.35888 -11.34447
 Alpha  occ. eigenvalues --  -11.33965 -11.33824 -11.28958 -11.28828 -11.25334
 Alpha  occ. eigenvalues --  -11.24970 -11.24363 -11.23803 -11.23686 -11.22851
 Alpha  occ. eigenvalues --  -11.22749 -11.22670 -11.22649 -11.22577 -11.22494
 Alpha  occ. eigenvalues --  -11.22051 -11.21316 -11.20930  -1.40574  -1.39608
 Alpha  occ. eigenvalues --   -1.38707  -1.38337  -1.25486  -1.23775  -1.22923
 Alpha  occ. eigenvalues --   -1.22261  -1.11000  -1.09351  -1.07437  -1.04435
 Alpha  occ. eigenvalues --   -1.01390  -0.99527  -0.98949  -0.95614  -0.95377
 Alpha  occ. eigenvalues --   -0.94804  -0.92280  -0.87094  -0.85858  -0.83475
 Alpha  occ. eigenvalues --   -0.81744  -0.79743  -0.78839  -0.77256  -0.77148
 Alpha  occ. eigenvalues --   -0.72329  -0.71551  -0.71170  -0.68730  -0.68267
 Alpha  occ. eigenvalues --   -0.67181  -0.66053  -0.64918  -0.64202  -0.64005
 Alpha  occ. eigenvalues --   -0.62629  -0.62412  -0.61976  -0.61633  -0.61283
 Alpha  occ. eigenvalues --   -0.60878  -0.59671  -0.59522  -0.58970  -0.58686
 Alpha  occ. eigenvalues --   -0.58412  -0.57748  -0.56875  -0.56595  -0.56234
 Alpha  occ. eigenvalues --   -0.55504  -0.55181  -0.54949  -0.54694  -0.54206
 Alpha  occ. eigenvalues --   -0.53421  -0.52725  -0.52472  -0.52233  -0.51880
 Alpha  occ. eigenvalues --   -0.51240  -0.50702  -0.50022  -0.49348  -0.48748
 Alpha  occ. eigenvalues --   -0.48093  -0.47165  -0.46672  -0.44995  -0.42871
 Alpha  occ. eigenvalues --   -0.42138  -0.41762  -0.41267  -0.39102  -0.39060
 Alpha  occ. eigenvalues --   -0.38573  -0.37769  -0.34858
 Alpha virt. eigenvalues --    0.16912   0.18677   0.19409   0.19566   0.20220
 Alpha virt. eigenvalues --    0.21353   0.21699   0.22822   0.23234   0.24097
 Alpha virt. eigenvalues --    0.24832   0.25624   0.26152   0.26821   0.27382

 Mulliken atomic charges:
              1
     1  C   -0.281380
     2  N   -0.798739
     3  C    0.810793
     4  O   -0.621626
     5  C    0.141682
     6  C   -0.474827
     7  C   -0.351067
     8  C   -0.343564
     9  C   -0.360224
    10  C   -0.173583
    11  C   -0.175308
    12  C   -0.354469
    13  C   -0.311006
    14  C   -0.329066
    15  C    0.091179
    16  C   -0.509581
    17  N   -0.787511
    18  C    0.767141
    19  C   -0.595770
    20  O   -0.613853
    21  C    0.820309
    22  O   -0.638944
    23  N   -0.806570
    24  C   -0.275285
    25  N   -0.854074
    26  C    0.743819
    27  C   -0.588956
    28  O   -0.590876
    29  H    0.191499
    30  H    0.199154
    31  H    0.162832
    32  H    0.394049
    33  H    0.197292
    34  H    0.144790
    35  H    0.210693
    36  H    0.185851
    37  H    0.163797
    38  H    0.169756
    39  H    0.198475
    40  H    0.223325
    41  H    0.171760
    42  H    0.155796
    43  H    0.169505
    44  H    0.180384
    45  H    0.161903
    46  H    0.152836
    47  H    0.198025
    48  H    0.174121
    49  H    0.183286
    50  H    0.184231
    51  H    0.147611
    52  H    0.227117
    53  H    0.390033
    54  H    0.211616
    55  H    0.209652
    56  H    0.176763
    57  H    0.395573
    58  H    0.164381
    59  H    0.197892
    60  H    0.186278
    61  H    0.385199
    62  H    0.218505
    63  H    0.176006
    64  H    0.201370
 Sum of Mulliken atomic charges =   0.00000

 Dipole moment (field-independent basis, Debye):
    X=              0.1209    Y=             -1.9487    Z=              7.0853  Tot=              7.3494
 Quadrupole moment (field-independent basis, Debye-Ang):
   XX=           -220.8145   YY=           -156.6942   ZZ=           -171.8963
   XY=             -1.8077   XZ=            -24.4577   YZ=              5.8123

 Normal termination of Gaussian 09 at Thu Dec  5 16:26:18 2019.
