 Gaussian 09, Revision A.02,
 Gaussian 09:  EM64L-G09RevA.02 11-Jun-2009

 ---------------------------------
 #SP HF/6-31G* Geom=(ModRedundant)
 ---------------------------------

 ------------
 paramfit run
 ------------
 Symbolic Z-matrix:
 Charge =  0 Multiplicity = 1

                         Standard orientation:
 ---------------------------------------------------------------------
 Center     Atomic      Atomic             Coordinates (Angstroms)
 Number     Number       Type             X           Y           Z
 ---------------------------------------------------------------------
      1          6    20001001       -7.199539   -2.412888   -1.196529
      2          7    20001014       -6.312326   -1.277278   -1.053388
      3          6    20001002       -5.407512   -1.250212   -0.047064
      4          8    20001024       -5.143092   -2.219259    0.609271
      5          6    90000001       -4.622921    0.061958    0.131855
      6          6    90000002       -4.012497    0.107340    1.536549
      7          6    90000002       -3.531793    0.186053   -0.966163
      8          6    90000002       -2.345934    1.140278   -0.736324
      9          6    90000002       -1.164001    0.622061    0.106959
     10          6    20001004       -0.538615   -0.646072   -0.425026
     11          6    20001004        0.551691   -0.757844   -1.166307
     12          6    90000002        1.440835    0.355809   -1.665262
     13          6    90000002        2.752621    0.520802   -0.876872
     14          6    90000002        3.640220   -0.729657   -0.935475
     15          6    90000002        5.066862   -0.638830   -0.334571
     16          6    90000002        5.714823   -2.026960   -0.463776
     17          7    20001014        5.834661    0.328665   -1.106563
     18          6    20001002        7.082729    0.721786   -0.718183
     19          6    20001001        7.589302    1.982154   -1.381251
     20          8    20001024        7.734484    0.117657    0.087661
     21          6    20001002        4.956684   -0.121457    1.117638
     22          8    20001024        4.874451    1.057236    1.336387
     23          7    20001014        4.854036   -1.042379    2.100158
     24          6    20001001        4.798862   -0.626964    3.486732
     25          7    20001014       -5.503056    1.219359   -0.085438
     26          6    20001002       -6.617480    1.472895    0.658504
     27          6    20001001       -7.177863    2.873248    0.520298
     28          8    20001024       -7.126687    0.647205    1.362126
     29          1    20001035       -7.892146   -2.490675   -0.366352
     30          1    20001035       -6.621185   -3.323731   -1.247459
     31          1    20001035       -7.758392   -2.301035   -2.117141
     32          1    20001029       -6.640008   -0.398514   -1.380015
     33          1    20001034       -3.380677   -0.749105    1.716098
     34          1    20001034       -3.422227    1.012383    1.644787
     35          1    20001034       -4.790983    0.103151    2.285460
     36          1    20001034       -4.051275    0.530274   -1.857718
     37          1    20001034       -3.159818   -0.807565   -1.195597
     38          1    20001034       -1.959041    1.391978   -1.719473
     39          1    20001034       -2.697307    2.071243   -0.303643
     40          1    20001034       -1.480576    0.458796    1.128962
     41          1    20001034       -0.426084    1.415677    0.145511
     42          1    20001033       -1.049601   -1.556761   -0.157349
     43          1    20001033        0.854130   -1.753346   -1.451377
     44          1    20001034        0.910044    1.299828   -1.641708
     45          1    20001034        1.677447    0.167154   -2.711693
     46          1    20001034        3.274302    1.384208   -1.280299
     47          1    20001034        2.523060    0.765529    0.151835
     48          1    20001034        3.759913   -1.039216   -1.971517
     49          1    20001034        3.131166   -1.539658   -0.426444
     50          1    20001034        5.840687   -2.254493   -1.515901
     51          1    20001034        5.080736   -2.797851   -0.038282
     52          1    20001034        6.686284   -2.058921    0.006310
     53          1    20001029        5.298150    1.034425   -1.556864
     54          1    20001034        8.666305    2.008099   -1.314529
     55          1    20001034        7.186627    2.838790   -0.849129
     56          1    20001034        7.283088    2.048566   -2.419618
     57          1    20001029        5.162557   -1.967502    1.915031
     58          1    20001035        4.596867   -1.495441    4.099813
     59          1    20001035        4.003784    0.091700    3.620890
     60          1    20001035        5.730185   -0.171911    3.808162
     61          1    20001029       -5.079386    2.003657   -0.529204
     62          1    20001034       -8.219196    2.862533    0.807497
     63          1    20001034       -7.081009    3.256434   -0.489325
     64          1    20001034       -6.641709    3.539011    1.188954
 ---------------------------------------------------------------------

 SCF Done:  E(RHF) =  -1295.61585371     A.U. after   14 cycles

 The electronic state is 1-A.
 Alpha  occ. eigenvalues --  -20.53526 -20.52211 -20.51809 -20.51548 -15.59423
 Alpha  occ. eigenvalues --  -15.58080 -15.57704 -15.57154 -11.35802 -11.34422
 Alpha  occ. eigenvalues --  -11.33883 -11.33608 -11.28897 -11.28753 -11.25169
 Alpha  occ. eigenvalues --  -11.24589 -11.24248 -11.23848 -11.23785 -11.23632
 Alpha  occ. eigenvalues --  -11.22988 -11.22821 -11.22771 -11.22724 -11.22686
 Alpha  occ. eigenvalues --  -11.22585 -11.21917 -11.20763  -1.40443  -1.39555
 Alpha  occ. eigenvalues --   -1.38344  -1.38282  -1.25309  -1.23732  -1.22796
 Alpha  occ. eigenvalues --   -1.21732  -1.11324  -1.09551  -1.07368  -1.04518
 Alpha  occ. eigenvalues --   -1.01406  -0.99460  -0.98939  -0.95766  -0.95206
 Alpha  occ. eigenvalues --   -0.94817  -0.92634  -0.87337  -0.85794  -0.82670
 Alpha  occ. eigenvalues --   -0.80902  -0.80396  -0.79644  -0.77056  -0.76804
 Alpha  occ. eigenvalues --   -0.72416  -0.71516  -0.70683  -0.69231  -0.68292
 Alpha  occ. eigenvalues --   -0.67226  -0.65641  -0.64720  -0.63955  -0.63445
 Alpha  occ. eigenvalues --   -0.62405  -0.62305  -0.62108  -0.61655  -0.61508
 Alpha  occ. eigenvalues --   -0.61187  -0.60283  -0.59480  -0.59102  -0.58835
 Alpha  occ. eigenvalues --   -0.58022  -0.57560  -0.56612  -0.56260  -0.56194
 Alpha  occ. eigenvalues --   -0.55667  -0.55179  -0.54921  -0.54545  -0.54143
 Alpha  occ. eigenvalues --   -0.53422  -0.53238  -0.52480  -0.52381  -0.52080
 Alpha  occ. eigenvalues --   -0.51421  -0.50541  -0.49995  -0.49357  -0.48861
 Alpha  occ. eigenvalues --   -0.48393  -0.47187  -0.46687  -0.45155  -0.42890
 Alpha  occ. eigenvalues --   -0.41868  -0.41704  -0.41231  -0.39023  -0.38950
 Alpha  occ. eigenvalues --   -0.38478  -0.37984  -0.35067
 Alpha virt. eigenvalues --    0.16628   0.18870   0.19470   0.19773   0.21255
 Alpha virt. eigenvalues --    0.21431   0.21834   0.22818   0.23358   0.24031
 Alpha virt. eigenvalues --    0.25127   0.25702   0.26103   0.26326   0.27228

 Mulliken atomic charges:
              1
     1  C   -0.278657
     2  N   -0.780060
     3  C    0.808119
     4  O   -0.621876
     5  C    0.113425
     6  C   -0.482412
     7  C   -0.347085
     8  C   -0.320696
     9  C   -0.353127
    10  C   -0.180641
    11  C   -0.174219
    12  C   -0.355136
    13  C   -0.310433
    14  C   -0.329905
    15  C    0.090716
    16  C   -0.510044
    17  N   -0.787321
    18  C    0.767359
    19  C   -0.595750
    20  O   -0.613351
    21  C    0.820364
    22  O   -0.640712
    23  N   -0.805662
    24  C   -0.275364
    25  N   -0.843665
    26  C    0.743319
    27  C   -0.589104
    28  O   -0.591530
    29  H    0.185095
    30  H    0.198215
    31  H    0.161684
    32  H    0.389942
    33  H    0.195332
    34  H    0.150670
    35  H    0.213299
    36  H    0.170114
    37  H    0.205523
    38  H    0.174696
    39  H    0.149753
    40  H    0.185732
    41  H    0.176265
    42  H    0.188533
    43  H    0.177532
    44  H    0.173526
    45  H    0.163807
    46  H    0.151495
    47  H    0.197372
    48  H    0.174687
    49  H    0.186564
    50  H    0.184311
    51  H    0.149854
    52  H    0.226985
    53  H    0.389257
    54  H    0.211748
    55  H    0.208688
    56  H    0.176470
    57  H    0.396351
    58  H    0.166437
    59  H    0.197439
    60  H    0.185238
    61  H    0.385013
    62  H    0.218411
    63  H    0.176688
    64  H    0.200721
 Sum of Mulliken atomic charges =   0.00000

 Dipole moment (field-independent basis, Debye):
    X=             -1.3211    Y=              3.3736    Z=             -5.0705  Tot=              6.2320
 Quadrupole moment (field-independent basis, Debye-Ang):
   XX=           -205.0538   YY=           -163.4630   ZZ=           -167.2107
   XY=            -30.8659   XZ=             13.5086   YZ=             -5.1804

 Normal termination of Gaussian 09 at Thu Dec  5 16:09:32 2019.
