 Gaussian 09, Revision A.02,
 Gaussian 09:  EM64L-G09RevA.02 11-Jun-2009

 ---------------------------------
 #SP HF/6-31G* Geom=(ModRedundant)
 ---------------------------------

 ------------
 paramfit run
 ------------
 Symbolic Z-matrix:
 Charge =  0 Multiplicity = 1

                         Standard orientation:
 ---------------------------------------------------------------------
 Center     Atomic      Atomic             Coordinates (Angstroms)
 Number     Number       Type             X           Y           Z
 ---------------------------------------------------------------------
      1          6    20001001        5.372613   -0.651749    3.113986
      2          7    20001014        4.823426   -0.477829    1.785305
      3          6    20001002        5.541676   -0.858174    0.702917
      4          8    20001024        6.524884   -1.540656    0.788154
      5          6    90000001        4.956922   -0.485125   -0.671231
      6          6    90000002        6.059210   -0.552729   -1.733414
      7          6    90000002        3.772184   -1.426188   -1.021083
      8          6    90000002        2.656475   -1.640362    0.017645
      9          6    90000002        1.539202   -0.581014    0.095877
     10          6    20001004        0.811114   -0.357936   -1.208884
     11          6    20001004       -0.348951   -0.872743   -1.583027
     12          6    90000002       -1.232377   -1.812389   -0.797930
     13          6    90000002       -2.454263   -1.138637   -0.147840
     14          6    90000002       -3.397044   -0.501568   -1.177509
     15          6    90000002       -4.754323    0.055500   -0.675395
     16          6    90000002       -5.471548    0.687123   -1.879593
     17          7    20001014       -5.549571   -1.052214   -0.163456
     18          6    20001002       -6.736425   -0.841916    0.477019
     19          6    20001001       -7.248712   -2.020204    1.273263
     20          8    20001024       -7.333788    0.196684    0.416933
     21          6    20001002       -4.483249    1.035429    0.488642
     22          8    20001024       -4.329175    0.621198    1.606051
     23          7    20001014       -4.327289    2.340844    0.179530
     24          6    20001001       -4.121641    3.319334    1.227608
     25          7    20001014        4.364110    0.859554   -0.628298
     26          6    20001002        5.067684    1.987454   -0.324164
     27          6    20001001        4.378913    3.289507   -0.676827
     28          8    20001024        6.147102    1.955631    0.195437
     29          1    20001035        6.239881   -0.022398    3.277425
     30          1    20001035        5.664443   -1.681946    3.256299
     31          1    20001035        4.608850   -0.400790    3.839271
     32          1    20001029        4.179017    0.265970    1.651944
     33          1    20001034        6.517249   -1.529681   -1.759854
     34          1    20001034        5.634940   -0.333480   -2.708689
     35          1    20001034        6.834926    0.167262   -1.517072
     36          1    20001034        4.218478   -2.398767   -1.216367
     37          1    20001034        3.337015   -1.097403   -1.959598
     38          1    20001034        2.188622   -2.589947   -0.225295
     39          1    20001034        3.087875   -1.761368    1.005889
     40          1    20001034        1.944700    0.361422    0.440482
     41          1    20001034        0.843650   -0.905398    0.861915
     42          1    20001033        1.305193    0.302856   -1.902680
     43          1    20001033       -0.720375   -0.595054   -2.557035
     44          1    20001034       -0.661135   -2.302696   -0.018989
     45          1    20001034       -1.576030   -2.602318   -1.464645
     46          1    20001034       -2.974027   -1.891554    0.438108
     47          1    20001034       -2.116875   -0.391940    0.558873
     48          1    20001034       -3.628701   -1.228364   -1.953161
     49          1    20001034       -2.877404    0.315861   -1.663446
     50          1    20001034       -5.707306   -0.094702   -2.592157
     51          1    20001034       -4.833858    1.405325   -2.384488
     52          1    20001034       -6.394036    1.166369   -1.587914
     53          1    20001029       -5.028364   -1.829600    0.172291
     54          1    20001034       -8.312230   -1.910781    1.421642
     55          1    20001034       -6.760021   -2.021134    2.242957
     56          1    20001034       -7.040659   -2.965325    0.783525
     57          1    20001029       -4.692132    2.669177   -0.683254
     58          1    20001035       -3.899950    4.274461    0.769890
     59          1    20001035       -3.286814    3.022351    1.845257
     60          1    20001035       -4.997214    3.421496    1.860608
     61          1    20001029        3.543387    0.984758   -1.178103
     62          1    20001034        4.798220    4.081035   -0.072975
     63          1    20001034        3.306679    3.241478   -0.523336
     64          1    20001034        4.562349    3.517801   -1.721832
 ---------------------------------------------------------------------

 SCF Done:  E(RHF) =  -1295.61562322     A.U. after   14 cycles

 The electronic state is 1-A.
 Alpha  occ. eigenvalues --  -20.53549 -20.52541 -20.52276 -20.51673 -15.59426
 Alpha  occ. eigenvalues --  -15.58588 -15.58076 -15.57170 -11.35813 -11.34745
 Alpha  occ. eigenvalues --  -11.34352 -11.33641 -11.29212 -11.28914 -11.25701
 Alpha  occ. eigenvalues --  -11.24704 -11.24284 -11.24161 -11.23829 -11.23820
 Alpha  occ. eigenvalues --  -11.23640 -11.23541 -11.23407 -11.23250 -11.22935
 Alpha  occ. eigenvalues --  -11.22654 -11.22369 -11.20812  -1.40470  -1.39956
 Alpha  occ. eigenvalues --   -1.38682  -1.38446  -1.25359  -1.24120  -1.23297
 Alpha  occ. eigenvalues --   -1.21937  -1.11766  -1.09619  -1.07810  -1.04990
 Alpha  occ. eigenvalues --   -1.01691  -0.99812  -0.99262  -0.95811  -0.95357
 Alpha  occ. eigenvalues --   -0.95183  -0.92690  -0.87334  -0.86142  -0.83501
 Alpha  occ. eigenvalues --   -0.81841  -0.80118  -0.79741  -0.77508  -0.77064
 Alpha  occ. eigenvalues --   -0.73083  -0.71963  -0.71202  -0.68910  -0.68793
 Alpha  occ. eigenvalues --   -0.67663  -0.65423  -0.64921  -0.64590  -0.64316
 Alpha  occ. eigenvalues --   -0.62726  -0.62441  -0.62004  -0.61838  -0.61483
 Alpha  occ. eigenvalues --   -0.60512  -0.60166  -0.59538  -0.59483  -0.59179
 Alpha  occ. eigenvalues --   -0.58975  -0.57767  -0.57176  -0.57047  -0.56538
 Alpha  occ. eigenvalues --   -0.55846  -0.55562  -0.55382  -0.54655  -0.54509
 Alpha  occ. eigenvalues --   -0.53867  -0.53365  -0.52928  -0.52323  -0.52037
 Alpha  occ. eigenvalues --   -0.51334  -0.50654  -0.50369  -0.49787  -0.49537
 Alpha  occ. eigenvalues --   -0.48684  -0.47495  -0.47099  -0.45776  -0.42795
 Alpha  occ. eigenvalues --   -0.42134  -0.41744  -0.41573  -0.39461  -0.38980
 Alpha  occ. eigenvalues --   -0.38945  -0.37946  -0.35844
 Alpha virt. eigenvalues --    0.15933   0.18271   0.18888   0.19090   0.20649
 Alpha virt. eigenvalues --    0.21027   0.21383   0.22412   0.22764   0.23479
 Alpha virt. eigenvalues --    0.24655   0.25327   0.25927   0.26721   0.26967

 Mulliken atomic charges:
              1
     1  C   -0.277203
     2  N   -0.786020
     3  C    0.804107
     4  O   -0.618428
     5  C    0.096815
     6  C   -0.470302
     7  C   -0.347287
     8  C   -0.323949
     9  C   -0.358600
    10  C   -0.175301
    11  C   -0.170088
    12  C   -0.357557
    13  C   -0.311659
    14  C   -0.329732
    15  C    0.091183
    16  C   -0.509815
    17  N   -0.787275
    18  C    0.767069
    19  C   -0.595897
    20  O   -0.613323
    21  C    0.819968
    22  O   -0.639374
    23  N   -0.806823
    24  C   -0.275295
    25  N   -0.843254
    26  C    0.744266
    27  C   -0.590870
    28  O   -0.591637
    29  H    0.186089
    30  H    0.198350
    31  H    0.162014
    32  H    0.397067
    33  H    0.197448
    34  H    0.144147
    35  H    0.212533
    36  H    0.196000
    37  H    0.170473
    38  H    0.169270
    39  H    0.210767
    40  H    0.158038
    41  H    0.181891
    42  H    0.155156
    43  H    0.176849
    44  H    0.180385
    45  H    0.167160
    46  H    0.155171
    47  H    0.196444
    48  H    0.175945
    49  H    0.182805
    50  H    0.185252
    51  H    0.147833
    52  H    0.227996
    53  H    0.389784
    54  H    0.212464
    55  H    0.209324
    56  H    0.177242
    57  H    0.396237
    58  H    0.165052
    59  H    0.196443
    60  H    0.187227
    61  H    0.391343
    62  H    0.218752
    63  H    0.176857
    64  H    0.200475
 Sum of Mulliken atomic charges =   0.00000

 Dipole moment (field-independent basis, Debye):
    X=             -3.8848    Y=              1.1360    Z=             -3.6178  Tot=              5.4287
 Quadrupole moment (field-independent basis, Debye-Ang):
   XX=           -255.6520   YY=           -157.5706   ZZ=           -165.9176
   XY=             16.3557   XZ=              1.9318   YZ=             -5.2972

 Normal termination of Gaussian 09 at Thu Dec  5 16:58:23 2019.
