 Gaussian 09, Revision A.02,
 Gaussian 09:  EM64L-G09RevA.02 11-Jun-2009

 ---------------------------------
 #SP HF/6-31G* Geom=(ModRedundant)
 ---------------------------------

 ------------
 paramfit run
 ------------
 Symbolic Z-matrix:
 Charge =  0 Multiplicity = 1

                         Standard orientation:
 ---------------------------------------------------------------------
 Center     Atomic      Atomic             Coordinates (Angstroms)
 Number     Number       Type             X           Y           Z
 ---------------------------------------------------------------------
      1          6    20001001       -7.543775   -1.372837   -1.690709
      2          7    20001014       -6.263053   -0.964618   -1.151864
      3          6    20001002       -6.111567   -0.808713    0.184121
      4          8    20001024       -6.921005   -1.205482    0.976036
      5          6    90000001       -4.772697   -0.213256    0.655547
      6          6    90000002       -4.924250    0.324232    2.082425
      7          6    90000002       -3.651303   -1.283943    0.567759
      8          6    90000002       -2.552293   -1.128817   -0.498892
      9          6    90000002       -1.368727   -0.195319   -0.175795
     10          6    20001004       -0.627123   -0.558238    1.089349
     11          6    20001004        0.497293   -1.247617    1.195182
     12          6    90000002        1.317592   -1.843624    0.076415
     13          6    90000002        2.580296   -1.039217   -0.281460
     14          6    90000002        3.562856   -0.926041    0.891861
     15          6    90000002        4.953168   -0.295694    0.619205
     16          6    90000002        5.710373   -0.244195    1.956157
     17          7    20001014        5.674701   -1.149733   -0.314357
     18          6    20001002        6.872405   -0.770708   -0.848118
     19          6    20001001        7.306868   -1.558385   -2.062865
     20          8    20001024        7.535870    0.119088   -0.392902
     21          6    20001002        4.745673    1.083229   -0.047310
     22          8    20001024        4.564566    1.162253   -1.232588
     23          7    20001014        4.674810    2.161533    0.762765
     24          6    20001001        4.532559    3.488723    0.200151
     25          7    20001014       -4.338311    0.856300   -0.254832
     26          6    20001002       -5.062163    1.987020   -0.493959
     27          6    20001001       -4.298659    3.108887   -1.166711
     28          8    20001024       -6.221163    2.085702   -0.205652
     29          1    20001035       -8.305095   -0.616521   -1.537971
     30          1    20001035       -7.866497   -2.286095   -1.212659
     31          1    20001035       -7.430203   -1.554415   -2.752069
     32          1    20001029       -5.679935   -0.409116   -1.732963
     33          1    20001034       -5.263746   -0.447117    2.756737
     34          1    20001034       -3.967332    0.702586    2.429402
     35          1    20001034       -5.649410    1.124490    2.108051
     36          1    20001034       -4.159623   -2.224838    0.368889
     37          1    20001034       -3.195314   -1.385900    1.547534
     38          1    20001034       -2.146876   -2.121942   -0.669065
     39          1    20001034       -2.991072   -0.817215   -1.441096
     40          1    20001034       -1.712428    0.828386   -0.103248
     41          1    20001034       -0.696011   -0.225507   -1.025722
     42          1    20001033       -1.077012   -0.203505    2.002518
     43          1    20001033        0.886376   -1.406749    2.188689
     44          1    20001034        0.715416   -1.945292   -0.818299
     45          1    20001034        1.609609   -2.853567    0.361607
     46          1    20001034        3.049892   -1.522960   -1.133425
     47          1    20001034        2.291709   -0.053104   -0.620767
     48          1    20001034        3.747254   -1.915377    1.305074
     49          1    20001034        3.097520   -0.343200    1.678058
     50          1    20001034        5.895269   -1.258749    2.289441
     51          1    20001034        5.120812    0.247331    2.723100
     52          1    20001034        6.661860    0.256298    1.856567
     53          1    20001029        5.104043   -1.694642   -0.919447
     54          1    20001034        8.375176   -1.461776   -2.183052
     55          1    20001034        6.818710   -1.141087   -2.938473
     56          1    20001034        7.038201   -2.606476   -1.987343
     57          1    20001029        5.060557    2.093722    1.674855
     58          1    20001035        4.373460    4.191107    1.007779
     59          1    20001035        3.679957    3.514615   -0.462439
     60          1    20001035        5.412631    3.784340   -0.361845
     61          1    20001029       -3.355987    0.919709   -0.405056
     62          1    20001034       -5.002982    3.768060   -1.652916
     63          1    20001034       -3.582000    2.740455   -1.892113
     64          1    20001034       -3.759255    3.674257   -0.413584
 ---------------------------------------------------------------------

 SCF Done:  E(RHF) =  -1295.60606299     A.U. after   14 cycles

 The electronic state is 1-A.
 Alpha  occ. eigenvalues --  -20.53211 -20.52605 -20.52349 -20.51438 -15.58793
 Alpha  occ. eigenvalues --  -15.58630 -15.58147 -15.57042 -11.35461 -11.34812
 Alpha  occ. eigenvalues --  -11.34419 -11.33416 -11.29277 -11.28704 -11.25734
 Alpha  occ. eigenvalues --  -11.24683 -11.24510 -11.24251 -11.24159 -11.24061
 Alpha  occ. eigenvalues --  -11.23956 -11.23796 -11.23750 -11.23650 -11.23428
 Alpha  occ. eigenvalues --  -11.23011 -11.22392 -11.20740  -1.40154  -1.40024
 Alpha  occ. eigenvalues --   -1.38749  -1.38216  -1.25182  -1.24190  -1.23342
 Alpha  occ. eigenvalues --   -1.21632  -1.12141  -1.09840  -1.07788  -1.05387
 Alpha  occ. eigenvalues --   -1.01883  -0.99918  -0.99369  -0.96030  -0.95353
 Alpha  occ. eigenvalues --   -0.95099  -0.92921  -0.87429  -0.86231  -0.83498
 Alpha  occ. eigenvalues --   -0.81333  -0.81079  -0.80138  -0.77563  -0.76794
 Alpha  occ. eigenvalues --   -0.73595  -0.72093  -0.70915  -0.68962  -0.68856
 Alpha  occ. eigenvalues --   -0.67764  -0.65243  -0.64969  -0.64576  -0.63521
 Alpha  occ. eigenvalues --   -0.62710  -0.62406  -0.62127  -0.61998  -0.61822
 Alpha  occ. eigenvalues --   -0.61205  -0.60277  -0.59792  -0.59313  -0.59244
 Alpha  occ. eigenvalues --   -0.58666  -0.57756  -0.57340  -0.57130  -0.56713
 Alpha  occ. eigenvalues --   -0.56029  -0.55582  -0.55415  -0.54770  -0.54263
 Alpha  occ. eigenvalues --   -0.53891  -0.53584  -0.52994  -0.52560  -0.52171
 Alpha  occ. eigenvalues --   -0.51442  -0.50654  -0.50426  -0.49831  -0.49528
 Alpha  occ. eigenvalues --   -0.49357  -0.47415  -0.47134  -0.46097  -0.42574
 Alpha  occ. eigenvalues --   -0.42206  -0.41812  -0.41637  -0.39520  -0.39005
 Alpha  occ. eigenvalues --   -0.38562  -0.37874  -0.36156
 Alpha virt. eigenvalues --    0.15594   0.18873   0.19025   0.19937   0.20910
 Alpha virt. eigenvalues --    0.21109   0.21511   0.22202   0.22631   0.23118
 Alpha virt. eigenvalues --    0.24339   0.25140   0.26056   0.26646   0.27113

 Mulliken atomic charges:
              1
     1  C   -0.278167
     2  N   -0.781249
     3  C    0.792398
     4  O   -0.618152
     5  C    0.145486
     6  C   -0.475461
     7  C   -0.360133
     8  C   -0.346847
     9  C   -0.375948
    10  C   -0.170748
    11  C   -0.169972
    12  C   -0.358540
    13  C   -0.311176
    14  C   -0.330247
    15  C    0.090956
    16  C   -0.510099
    17  N   -0.787132
    18  C    0.767140
    19  C   -0.595916
    20  O   -0.612985
    21  C    0.819916
    22  O   -0.640327
    23  N   -0.806422
    24  C   -0.275234
    25  N   -0.882082
    26  C    0.747937
    27  C   -0.593499
    28  O   -0.593728
    29  H    0.185353
    30  H    0.198107
    31  H    0.161049
    32  H    0.391265
    33  H    0.197558
    34  H    0.140078
    35  H    0.210800
    36  H    0.202188
    37  H    0.190898
    38  H    0.187542
    39  H    0.173825
    40  H    0.159645
    41  H    0.187996
    42  H    0.182122
    43  H    0.181571
    44  H    0.175862
    45  H    0.168870
    46  H    0.154952
    47  H    0.195240
    48  H    0.176565
    49  H    0.184439
    50  H    0.185506
    51  H    0.148913
    52  H    0.228130
    53  H    0.389384
    54  H    0.212734
    55  H    0.208822
    56  H    0.177218
    57  H    0.396783
    58  H    0.166172
    59  H    0.195558
    60  H    0.187046
    61  H    0.414138
    62  H    0.218345
    63  H    0.175893
    64  H    0.199665
 Sum of Mulliken atomic charges =   0.00000

 Dipole moment (field-independent basis, Debye):
    X=              4.0373    Y=             -0.7946    Z=             -1.1216  Tot=              4.2649
 Quadrupole moment (field-independent basis, Debye-Ang):
   XX=           -255.0397   YY=           -162.7791   ZZ=           -164.3944
   XY=            -10.2891   XZ=             28.6202   YZ=              9.4259

 Normal termination of Gaussian 09 at Thu Dec  5 16:25:50 2019.
