 Gaussian 09, Revision A.02,
 Gaussian 09:  EM64L-G09RevA.02 11-Jun-2009

 ---------------------------------
 #SP HF/6-31G* Geom=(ModRedundant)
 ---------------------------------

 ------------
 paramfit run
 ------------
 Symbolic Z-matrix:
 Charge =  0 Multiplicity = 1

                         Standard orientation:
 ---------------------------------------------------------------------
 Center     Atomic      Atomic             Coordinates (Angstroms)
 Number     Number       Type             X           Y           Z
 ---------------------------------------------------------------------
      1          6    20001001       -3.669590    1.829192   -2.383656
      2          7    20001014       -3.854671    0.954487   -1.244410
      3          6    20001002       -4.738389   -0.068321   -1.315220
      4          8    20001024       -5.222307   -0.432530   -2.351039
      5          6    90000001       -4.994711   -0.842090   -0.009476
      6          6    90000002       -6.308397   -1.622323   -0.124842
      7          6    90000002       -3.799038   -1.784573    0.296618
      8          6    90000002       -2.605453   -1.816645   -0.674959
      9          6    90000002       -1.530704   -0.721777   -0.523905
     10          6    20001004       -0.905594   -0.659354    0.850001
     11          6    20001004        0.245972   -1.184102    1.236385
     12          6    90000002        1.220636   -1.976881    0.398956
     13          6    90000002        2.455755   -1.180799   -0.059628
     14          6    90000002        3.296775   -0.663535    1.115123
     15          6    90000002        4.661365    0.000771    0.796950
     16          6    90000002        5.265603    0.481204    2.126435
     17          7    20001014        5.536070   -0.999151    0.199805
     18          6    20001002        6.754973   -0.664232   -0.315131
     19          6    20001001        7.370486   -1.703444   -1.223970
     20          8    20001024        7.302736    0.374352   -0.069281
     21          6    20001002        4.431627    1.123983   -0.239554
     22          8    20001024        4.373512    0.864526   -1.411405
     23          7    20001014        4.200004    2.368093    0.232166
     24          6    20001001        4.027424    3.475829   -0.685080
     25          7    20001014       -5.042459    0.081824    1.133123
     26          6    20001002       -5.943193    1.099427    1.246416
     27          6    20001001       -6.062450    1.701252    2.631227
     28          8    20001024       -6.586582    1.499631    0.317961
     29          1    20001035       -4.559699    2.410809   -2.594316
     30          1    20001035       -3.427582    1.243217   -3.258178
     31          1    20001035       -2.846809    2.500954   -2.173608
     32          1    20001029       -3.690643    1.338368   -0.343291
     33          1    20001034       -6.293874   -2.289041   -0.973493
     34          1    20001034       -6.464317   -2.202836    0.779553
     35          1    20001034       -7.138828   -0.943850   -0.255167
     36          1    20001034       -4.216850   -2.788535    0.323363
     37          1    20001034       -3.444683   -1.575879    1.301187
     38          1    20001034       -2.116450   -2.775453   -0.529419
     39          1    20001034       -2.961260   -1.812650   -1.700025
     40          1    20001034       -1.950152    0.246074   -0.766167
     41          1    20001034       -0.770340   -0.914205   -1.272671
     42          1    20001033       -1.474165   -0.117515    1.588413
     43          1    20001033        0.536448   -1.032943    2.264264
     44          1    20001034        0.726254   -2.371960   -0.480227
     45          1    20001034        1.549546   -2.840555    0.975566
     46          1    20001034        3.046236   -1.828006   -0.702146
     47          1    20001034        2.137692   -0.354151   -0.681175
     48          1    20001034        3.503804   -1.483433    1.799551
     49          1    20001034        2.710714    0.061438    1.667658
     50          1    20001034        5.483433   -0.384253    2.741346
     51          1    20001034        4.564708    1.101580    2.675307
     52          1    20001034        6.185389    1.025410    1.972898
     53          1    20001029        5.072568   -1.738432   -0.276998
     54          1    20001034        8.436270   -1.540733   -1.275825
     55          1    20001034        6.951261   -1.584999   -2.218630
     56          1    20001034        7.168386   -2.713623   -0.884741
     57          1    20001029        4.489581    2.584641    1.156592
     58          1    20001035        3.734541    4.350478   -0.119280
     59          1    20001035        3.250974    3.241290   -1.398341
     60          1    20001035        4.940079    3.692796   -1.230736
     61          1    20001029       -4.659493   -0.266876    1.983589
     62          1    20001034       -6.469746    2.698057    2.544841
     63          1    20001034       -5.108907    1.739280    3.145872
     64          1    20001034       -6.744147    1.099438    3.223604
 ---------------------------------------------------------------------

 SCF Done:  E(RHF) =  -1295.60380304     A.U. after   14 cycles

 The electronic state is 1-A.
 Alpha  occ. eigenvalues --  -20.53639 -20.52298 -20.51955 -20.51805 -15.59577
 Alpha  occ. eigenvalues --  -15.58285 -15.57799 -15.57259 -11.35875 -11.34501
 Alpha  occ. eigenvalues --  -11.34037 -11.33789 -11.28952 -11.28897 -11.25406
 Alpha  occ. eigenvalues --  -11.24909 -11.24362 -11.23840 -11.23769 -11.22967
 Alpha  occ. eigenvalues --  -11.22891 -11.22750 -11.22721 -11.22717 -11.22602
 Alpha  occ. eigenvalues --  -11.22111 -11.21627 -11.20915  -1.40563  -1.39671
 Alpha  occ. eigenvalues --   -1.38642  -1.38401  -1.25484  -1.23837  -1.22994
 Alpha  occ. eigenvalues --   -1.22214  -1.11119  -1.09407  -1.07511  -1.04526
 Alpha  occ. eigenvalues --   -1.01450  -0.99578  -0.99006  -0.95572  -0.95453
 Alpha  occ. eigenvalues --   -0.94881  -0.92357  -0.87120  -0.85888  -0.83576
 Alpha  occ. eigenvalues --   -0.81863  -0.79809  -0.78972  -0.77264  -0.77215
 Alpha  occ. eigenvalues --   -0.72432  -0.71625  -0.71150  -0.68759  -0.68352
 Alpha  occ. eigenvalues --   -0.67238  -0.65925  -0.64977  -0.64291  -0.64061
 Alpha  occ. eigenvalues --   -0.62634  -0.62374  -0.62014  -0.61693  -0.61350
 Alpha  occ. eigenvalues --   -0.60836  -0.59725  -0.59414  -0.59051  -0.58804
 Alpha  occ. eigenvalues --   -0.58475  -0.57786  -0.56933  -0.56676  -0.56264
 Alpha  occ. eigenvalues --   -0.55532  -0.55280  -0.55033  -0.54742  -0.54264
 Alpha  occ. eigenvalues --   -0.53510  -0.52850  -0.52572  -0.52215  -0.51962
 Alpha  occ. eigenvalues --   -0.51242  -0.50652  -0.50086  -0.49415  -0.48869
 Alpha  occ. eigenvalues --   -0.48170  -0.47204  -0.46746  -0.45132  -0.42851
 Alpha  occ. eigenvalues --   -0.42103  -0.41830  -0.41322  -0.39169  -0.39046
 Alpha  occ. eigenvalues --   -0.38642  -0.37833  -0.35001
 Alpha virt. eigenvalues --    0.16746   0.18608   0.19315   0.19384   0.20365
 Alpha virt. eigenvalues --    0.21288   0.21631   0.22631   0.23154   0.24151
 Alpha virt. eigenvalues --    0.24642   0.25559   0.26116   0.26799   0.27413

 Mulliken atomic charges:
              1
     1  C   -0.277589
     2  N   -0.793184
     3  C    0.807880
     4  O   -0.622510
     5  C    0.142019
     6  C   -0.476343
     7  C   -0.349963
     8  C   -0.338302
     9  C   -0.351336
    10  C   -0.173838
    11  C   -0.174469
    12  C   -0.355002
    13  C   -0.311073
    14  C   -0.329130
    15  C    0.091183
    16  C   -0.509614
    17  N   -0.787474
    18  C    0.767117
    19  C   -0.595790
    20  O   -0.613782
    21  C    0.820252
    22  O   -0.639015
    23  N   -0.806620
    24  C   -0.275247
    25  N   -0.853408
    26  C    0.743771
    27  C   -0.589126
    28  O   -0.590644
    29  H    0.189460
    30  H    0.199444
    31  H    0.161716
    32  H    0.393116
    33  H    0.197309
    34  H    0.145103
    35  H    0.210772
    36  H    0.188729
    37  H    0.161366
    38  H    0.170179
    39  H    0.197449
    40  H    0.204133
    41  H    0.172759
    42  H    0.155378
    43  H    0.170229
    44  H    0.180311
    45  H    0.162697
    46  H    0.153230
    47  H    0.197624
    48  H    0.174413
    49  H    0.183160
    50  H    0.184407
    51  H    0.147592
    52  H    0.227266
    53  H    0.390017
    54  H    0.211760
    55  H    0.209610
    56  H    0.176863
    57  H    0.395683
    58  H    0.164495
    59  H    0.197530
    60  H    0.186465
    61  H    0.385264
    62  H    0.218600
    63  H    0.175791
    64  H    0.201313
 Sum of Mulliken atomic charges =   0.00000

 Dipole moment (field-independent basis, Debye):
    X=              0.8627    Y=             -0.9884    Z=              6.9319  Tot=              7.0549
 Quadrupole moment (field-independent basis, Debye-Ang):
   XX=           -227.6211   YY=           -156.7578   ZZ=           -171.0022
   XY=             -6.7870   XZ=            -22.9747   YZ=              4.2503

 Normal termination of Gaussian 09 at Thu Dec  5 16:31:45 2019.
