 Gaussian 09, Revision A.02,
 Gaussian 09:  EM64L-G09RevA.02 11-Jun-2009

 ---------------------------------
 #SP HF/6-31G* Geom=(ModRedundant)
 ---------------------------------

 ------------
 paramfit run
 ------------
 Symbolic Z-matrix:
 Charge =  0 Multiplicity = 1

                         Standard orientation:
 ---------------------------------------------------------------------
 Center     Atomic      Atomic             Coordinates (Angstroms)
 Number     Number       Type             X           Y           Z
 ---------------------------------------------------------------------
      1          6    20001001        5.793845   -0.856195    2.975106
      2          7    20001014        5.085971   -0.609066    1.736120
      3          6    20001002        5.688677   -0.865597    0.551618
      4          8    20001024        6.704032   -1.499492    0.468095
      5          6    90000001        4.931480   -0.418579   -0.711795
      6          6    90000002        5.903892   -0.344943   -1.893673
      7          6    90000002        3.756296   -1.391195   -1.002593
      8          6    90000002        2.651295   -1.564880    0.054970
      9          6    90000002        1.521156   -0.516843    0.087263
     10          6    20001004        0.780442   -0.370985   -1.221303
     11          6    20001004       -0.375718   -0.918912   -1.558688
     12          6    90000002       -1.241077   -1.827341   -0.718649
     13          6    90000002       -2.466558   -1.135903   -0.094413
     14          6    90000002       -3.425173   -0.565000   -1.147999
     15          6    90000002       -4.785652    0.000544   -0.664364
     16          6    90000002       -5.519982    0.559729   -1.893804
     17          7    20001014       -5.562750   -1.088826   -0.089104
     18          6    20001002       -6.747336   -0.860245    0.549303
     19          6    20001001       -7.238452   -2.001789    1.409818
     20          8    20001024       -7.358399    0.166331    0.440283
     21          6    20001002       -4.518386    1.042980    0.444969
     22          8    20001024       -4.350586    0.689374    1.581074
     23          7    20001014       -4.381510    2.332384    0.067237
     24          6    20001001       -4.180519    3.366541    1.061383
     25          7    20001014        4.289466    0.885349   -0.490391
     26          6    20001002        4.973727    2.021986   -0.174930
     27          6    20001001        4.192111    3.309089   -0.337907
     28          8    20001024        6.106851    2.007261    0.214881
     29          1    20001035        6.645890   -0.196290    3.091278
     30          1    20001035        6.145129   -1.877385    2.997302
     31          1    20001035        5.109887   -0.703174    3.800418
     32          1    20001029        4.398452    0.107590    1.738807
     33          1    20001034        6.398018   -1.291206   -2.052916
     34          1    20001034        5.359298   -0.073486   -2.793098
     35          1    20001034        6.667319    0.396235   -1.707233
     36          1    20001034        4.213535   -2.367001   -1.150777
     37          1    20001034        3.309879   -1.117096   -1.953309
     38          1    20001034        2.193833   -2.531548   -0.134501
     39          1    20001034        3.091655   -1.628959    1.044592
     40          1    20001034        1.917128    0.447199    0.379141
     41          1    20001034        0.835619   -0.809552    0.874788
     42          1    20001033        1.260760    0.258906   -1.952497
     43          1    20001033       -0.758011   -0.696889   -2.542720
     44          1    20001034       -0.657734   -2.269342    0.079982
     45          1    20001034       -1.579596   -2.655082   -1.340616
     46          1    20001034       -2.972192   -1.863716    0.534075
     47          1    20001034       -2.133446   -0.349329    0.569793
     48          1    20001034       -3.653340   -1.333975   -1.882948
     49          1    20001034       -2.919735    0.232432   -1.679961
     50          1    20001034       -5.751069   -0.260966   -2.562863
     51          1    20001034       -4.895380    1.258555   -2.440517
     52          1    20001034       -6.446311    1.042014   -1.619842
     53          1    20001029       -5.029102   -1.841169    0.282261
     54          1    20001034       -8.302135   -1.898004    1.561035
     55          1    20001034       -6.742485   -1.946217    2.374210
     56          1    20001034       -7.022003   -2.968448    0.968115
     57          1    20001029       -4.757033    2.610845   -0.808408
     58          1    20001035       -3.974550    4.299245    0.552894
     59          1    20001035       -3.337316    3.112468    1.686748
     60          1    20001035       -5.052528    3.490616    1.695385
     61          1    20001029        3.405393    1.009114   -0.931575
     62          1    20001034        4.644102    4.072495    0.278443
     63          1    20001034        3.148320    3.192455   -0.068746
     64          1    20001034        4.241917    3.627215   -1.374304
 ---------------------------------------------------------------------

 SCF Done:  E(RHF) =  -1295.61547971     A.U. after   14 cycles

 The electronic state is 1-A.
 Alpha  occ. eigenvalues --  -20.53535 -20.52565 -20.52309 -20.51620 -15.59362
 Alpha  occ. eigenvalues --  -15.58618 -15.58102 -15.57224 -11.35795 -11.34770
 Alpha  occ. eigenvalues --  -11.34384 -11.33628 -11.29241 -11.28904 -11.25733
 Alpha  occ. eigenvalues --  -11.24690 -11.24270 -11.24195 -11.23867 -11.23805
 Alpha  occ. eigenvalues --  -11.23693 -11.23596 -11.23559 -11.23299 -11.22958
 Alpha  occ. eigenvalues --  -11.22885 -11.22389 -11.20808  -1.40455  -1.39985
 Alpha  occ. eigenvalues --   -1.38710  -1.38409  -1.25357  -1.24147  -1.23328
 Alpha  occ. eigenvalues --   -1.21922  -1.11837  -1.09652  -1.07833  -1.05077
 Alpha  occ. eigenvalues --   -1.01723  -0.99867  -0.99294  -0.95852  -0.95352
 Alpha  occ. eigenvalues --   -0.95201  -0.92716  -0.87365  -0.86176  -0.83499
 Alpha  occ. eigenvalues --   -0.81832  -0.80173  -0.79915  -0.77537  -0.77060
 Alpha  occ. eigenvalues --   -0.73177  -0.72004  -0.71259  -0.68914  -0.68836
 Alpha  occ. eigenvalues --   -0.67682  -0.65412  -0.64902  -0.64549  -0.64233
 Alpha  occ. eigenvalues --   -0.62751  -0.62429  -0.62031  -0.61869  -0.61505
 Alpha  occ. eigenvalues --   -0.60635  -0.60131  -0.59636  -0.59563  -0.59237
 Alpha  occ. eigenvalues --   -0.58975  -0.57724  -0.57266  -0.57079  -0.56585
 Alpha  occ. eigenvalues --   -0.55940  -0.55586  -0.55408  -0.54669  -0.54446
 Alpha  occ. eigenvalues --   -0.53896  -0.53426  -0.52945  -0.52391  -0.51985
 Alpha  occ. eigenvalues --   -0.51343  -0.50702  -0.50392  -0.49795  -0.49623
 Alpha  occ. eigenvalues --   -0.48819  -0.47478  -0.47128  -0.45806  -0.42803
 Alpha  occ. eigenvalues --   -0.42164  -0.41728  -0.41598  -0.39491  -0.38976
 Alpha  occ. eigenvalues --   -0.38943  -0.38003  -0.35908
 Alpha virt. eigenvalues --    0.15943   0.18494   0.18876   0.19080   0.20698
 Alpha virt. eigenvalues --    0.21001   0.21350   0.22411   0.22724   0.23312
 Alpha virt. eigenvalues --    0.24695   0.25014   0.25968   0.26708   0.26992

 Mulliken atomic charges:
              1
     1  C   -0.277611
     2  N   -0.784354
     3  C    0.811126
     4  O   -0.619818
     5  C    0.093559
     6  C   -0.469750
     7  C   -0.351876
     8  C   -0.320533
     9  C   -0.368095
    10  C   -0.175639
    11  C   -0.169977
    12  C   -0.357908
    13  C   -0.311617
    14  C   -0.329813
    15  C    0.091147
    16  C   -0.509863
    17  N   -0.787239
    18  C    0.767072
    19  C   -0.595905
    20  O   -0.613266
    21  C    0.819931
    22  O   -0.639498
    23  N   -0.806815
    24  C   -0.275276
    25  N   -0.844455
    26  C    0.745052
    27  C   -0.591526
    28  O   -0.591850
    29  H    0.185838
    30  H    0.198941
    31  H    0.161741
    32  H    0.393748
    33  H    0.197678
    34  H    0.143538
    35  H    0.212551
    36  H    0.197589
    37  H    0.175617
    38  H    0.171509
    39  H    0.202711
    40  H    0.158330
    41  H    0.183865
    42  H    0.159611
    43  H    0.177648
    44  H    0.179774
    45  H    0.167579
    46  H    0.155234
    47  H    0.196127
    48  H    0.176145
    49  H    0.182951
    50  H    0.185361
    51  H    0.147974
    52  H    0.228043
    53  H    0.389732
    54  H    0.212538
    55  H    0.209239
    56  H    0.177276
    57  H    0.396355
    58  H    0.165177
    59  H    0.196173
    60  H    0.187302
    61  H    0.394337
    62  H    0.218775
    63  H    0.177380
    64  H    0.200409
 Sum of Mulliken atomic charges =   0.00000

 Dipole moment (field-independent basis, Debye):
    X=             -4.1583    Y=              0.8603    Z=             -2.8177  Tot=              5.0962
 Quadrupole moment (field-independent basis, Debye-Ang):
   XX=           -258.4170   YY=           -157.8665   ZZ=           -165.4615
   XY=             15.2715   XZ=              7.2017   YZ=             -6.4624

 Normal termination of Gaussian 09 at Thu Dec  5 15:59:43 2019.
