 Gaussian 09, Revision A.02,
 Gaussian 09:  EM64L-G09RevA.02 11-Jun-2009

 ---------------------------------
 #SP HF/6-31G* Geom=(ModRedundant)
 ---------------------------------

 ------------
 paramfit run
 ------------
 Symbolic Z-matrix:
 Charge =  0 Multiplicity = 1

                         Standard orientation:
 ---------------------------------------------------------------------
 Center     Atomic      Atomic             Coordinates (Angstroms)
 Number     Number       Type             X           Y           Z
 ---------------------------------------------------------------------
      1          6    20001001        5.004224    2.754871   -1.688694
      2          7    20001014        4.971023    1.370640   -1.264373
      3          6    20001002        4.575900    1.059099   -0.007819
      4          8    20001024        4.035177    1.850865    0.713617
      5          6    90000001        4.730066   -0.413779    0.412002
      6          6    90000002        4.694045   -0.518171    1.940284
      7          6    90000002        3.616335   -1.275409   -0.242826
      8          6    90000002        2.383748   -1.663999    0.593454
      9          6    90000002        1.245675   -0.630925    0.712553
     10          6    20001004        0.682357   -0.181067   -0.615069
     11          6    20001004       -0.411904   -0.618829   -1.216497
     12          6    90000002       -1.368672   -1.678221   -0.724524
     13          6    90000002       -2.674744   -1.124324   -0.127079
     14          6    90000002       -3.493236   -0.314165   -1.141289
     15          6    90000002       -4.912910    0.151122   -0.725740
     16          6    90000002       -5.485735    0.985653   -1.882841
     17          7    20001014       -5.744884   -1.026349   -0.518584
     18          6    20001002       -7.006260   -0.927221   -0.006565
     19          6    20001001       -7.591758   -2.224750    0.501777
     20          8    20001024       -7.610910    0.107870    0.039560
     21          6    20001002       -4.808042    0.911854    0.615533
     22          8    20001024       -4.787099    0.308375    1.654430
     23          7    20001014       -4.639315    2.250670    0.559988
     24          6    20001001       -4.584820    3.030447    1.779488
     25          7    20001014        5.986534   -0.967822   -0.113122
     26          6    20001002        7.219268   -0.473308    0.195900
     27          6    20001001        8.381214   -1.381985   -0.148056
     28          8    20001024        7.377030    0.606033    0.692162
     29          1    20001035        5.751309    3.324562   -1.148079
     30          1    20001035        4.039004    3.210584   -1.523169
     31          1    20001035        5.229505    2.786599   -2.747276
     32          1    20001029        5.610078    0.745564   -1.697009
     33          1    20001034        3.785115   -0.094830    2.339736
     34          1    20001034        4.757381   -1.562097    2.232595
     35          1    20001034        5.524418    0.019786    2.373885
     36          1    20001034        4.101812   -2.200406   -0.545995
     37          1    20001034        3.295798   -0.786377   -1.157367
     38          1    20001034        1.967941   -2.555038    0.132180
     39          1    20001034        2.690408   -1.957116    1.592161
     40          1    20001034        1.587051    0.235526    1.263994
     41          1    20001034        0.466048   -1.081799    1.316478
     42          1    20001033        1.246750    0.589091   -1.115499
     43          1    20001033       -0.663805   -0.174120   -2.166518
     44          1    20001034       -0.890156   -2.298875    0.023324
     45          1    20001034       -1.611303   -2.338470   -1.556266
     46          1    20001034       -3.249392   -1.966277    0.248779
     47          1    20001034       -2.442512   -0.513606    0.735431
     48          1    20001034       -3.612341   -0.893597   -2.054309
     49          1    20001034       -2.932433    0.573846   -1.408285
     50          1    20001034       -5.615757    0.341035   -2.744318
     51          1    20001034       -4.803586    1.778885   -2.170658
     52          1    20001034       -6.446329    1.409633   -1.631368
     53          1    20001029       -5.255174   -1.852122   -0.259754
     54          1    20001034       -8.667357   -2.139429    0.531259
     55          1    20001034       -7.228213   -2.396584    1.510457
     56          1    20001034       -7.306312   -3.070518   -0.114323
     57          1    20001029       -4.899549    2.725802   -0.271779
     58          1    20001035       -4.325699    4.050089    1.526298
     59          1    20001035       -3.828315    2.627442    2.436690
     60          1    20001035       -5.534437    3.023385    2.304780
     61          1    20001029        5.950464   -1.922312   -0.394539
     62          1    20001034        9.276749   -0.784636   -0.238417
     63          1    20001034        8.214226   -1.931851   -1.067464
     64          1    20001034        8.523019   -2.098234    0.654864
 ---------------------------------------------------------------------

 SCF Done:  E(RHF) =  -1295.61497190     A.U. after   14 cycles

 The electronic state is 1-A.
 Alpha  occ. eigenvalues --  -20.53591 -20.52013 -20.51831 -20.51530 -15.59552
 Alpha  occ. eigenvalues --  -15.57808 -15.57485 -15.57319 -11.35871 -11.34224
 Alpha  occ. eigenvalues --  -11.33776 -11.33613 -11.28964 -11.28510 -11.24872
 Alpha  occ. eigenvalues --  -11.24790 -11.24321 -11.23919 -11.23348 -11.22818
 Alpha  occ. eigenvalues --  -11.22586 -11.22504 -11.22356 -11.22264 -11.22084
 Alpha  occ. eigenvalues --  -11.21978 -11.21728 -11.20813  -1.40525  -1.39320
 Alpha  occ. eigenvalues --   -1.38593  -1.38040  -1.25432  -1.23508  -1.22523
 Alpha  occ. eigenvalues --   -1.21935  -1.10856  -1.09315  -1.07166  -1.04204
 Alpha  occ. eigenvalues --   -1.01218  -0.99255  -0.98697  -0.95484  -0.95187
 Alpha  occ. eigenvalues --   -0.94561  -0.92365  -0.87444  -0.85659  -0.82528
 Alpha  occ. eigenvalues --   -0.81313  -0.79461  -0.79075  -0.77024  -0.76805
 Alpha  occ. eigenvalues --   -0.71947  -0.71261  -0.70835  -0.69104  -0.67974
 Alpha  occ. eigenvalues --   -0.66753  -0.65503  -0.64523  -0.63964  -0.63549
 Alpha  occ. eigenvalues --   -0.62719  -0.62254  -0.61888  -0.61404  -0.61231
 Alpha  occ. eigenvalues --   -0.60927  -0.59706  -0.59292  -0.58787  -0.58654
 Alpha  occ. eigenvalues --   -0.58294  -0.57641  -0.56526  -0.56264  -0.56065
 Alpha  occ. eigenvalues --   -0.55583  -0.54899  -0.54703  -0.54474  -0.53922
 Alpha  occ. eigenvalues --   -0.53158  -0.52982  -0.52188  -0.52046  -0.51500
 Alpha  occ. eigenvalues --   -0.51134  -0.50389  -0.49764  -0.49009  -0.48659
 Alpha  occ. eigenvalues --   -0.48169  -0.47219  -0.46370  -0.44563  -0.42811
 Alpha  occ. eigenvalues --   -0.42083  -0.41454  -0.41026  -0.39190  -0.38777
 Alpha  occ. eigenvalues --   -0.38210  -0.38125  -0.34545
 Alpha virt. eigenvalues --    0.17189   0.18892   0.19702   0.19894   0.20696
 Alpha virt. eigenvalues --    0.21641   0.22022   0.23087   0.23541   0.24042
 Alpha virt. eigenvalues --    0.25127   0.25614   0.26600   0.26828   0.27737

 Mulliken atomic charges:
              1
     1  C   -0.278323
     2  N   -0.781159
     3  C    0.803267
     4  O   -0.622478
     5  C    0.136183
     6  C   -0.483659
     7  C   -0.350712
     8  C   -0.313182
     9  C   -0.363832
    10  C   -0.176711
    11  C   -0.177449
    12  C   -0.353840
    13  C   -0.310326
    14  C   -0.329498
    15  C    0.090874
    16  C   -0.509816
    17  N   -0.787556
    18  C    0.767379
    19  C   -0.595673
    20  O   -0.613677
    21  C    0.820644
    22  O   -0.640219
    23  N   -0.805425
    24  C   -0.275521
    25  N   -0.852760
    26  C    0.744377
    27  C   -0.589263
    28  O   -0.591501
    29  H    0.185883
    30  H    0.196926
    31  H    0.162197
    32  H    0.390541
    33  H    0.199305
    34  H    0.145953
    35  H    0.213961
    36  H    0.149634
    37  H    0.202126
    38  H    0.166004
    39  H    0.174574
    40  H    0.203288
    41  H    0.173279
    42  H    0.185645
    43  H    0.172701
    44  H    0.175068
    45  H    0.160829
    46  H    0.150541
    47  H    0.199195
    48  H    0.173193
    49  H    0.186614
    50  H    0.183400
    51  H    0.149384
    52  H    0.226547
    53  H    0.389464
    54  H    0.211183
    55  H    0.209118
    56  H    0.176128
    57  H    0.395635
    58  H    0.166056
    59  H    0.199339
    60  H    0.184386
    61  H    0.384861
    62  H    0.218736
    63  H    0.177122
    64  H    0.201040
 Sum of Mulliken atomic charges =   0.00000

 Dipole moment (field-independent basis, Debye):
    X=              3.4030    Y=             -5.1663    Z=             -5.1587  Tot=              8.0550
 Quadrupole moment (field-independent basis, Debye-Ang):
   XX=           -188.4574   YY=           -155.7591   ZZ=           -172.9185
   XY=            -22.2379   XZ=             -8.9988   YZ=             -7.1974

 Normal termination of Gaussian 09 at Thu Dec  5 16:39:46 2019.
