 Gaussian 09, Revision A.02,
 Gaussian 09:  EM64L-G09RevA.02 11-Jun-2009

 ---------------------------------
 #SP HF/6-31G* Geom=(ModRedundant)
 ---------------------------------

 ------------
 paramfit run
 ------------
 Symbolic Z-matrix:
 Charge =  0 Multiplicity = 1

                         Standard orientation:
 ---------------------------------------------------------------------
 Center     Atomic      Atomic             Coordinates (Angstroms)
 Number     Number       Type             X           Y           Z
 ---------------------------------------------------------------------
      1          6    20001001        6.163264    2.443488   -1.981041
      2          7    20001014        5.703633    1.178493   -1.446463
      3          6    20001002        4.960610    1.153700   -0.315352
      4          8    20001024        4.468310    2.141625    0.155168
      5          6    90000001        4.657595   -0.235907    0.273340
      6          6    90000002        4.237878   -0.091459    1.739905
      7          6    90000002        3.558536   -0.943363   -0.565217
      8          6    90000002        2.346240   -1.557102    0.158176
      9          6    90000002        1.183675   -0.615613    0.530569
     10          6    20001004        0.593402    0.127140   -0.645090
     11          6    20001004       -0.496374   -0.181692   -1.329026
     12          6    90000002       -1.419923   -1.354791   -1.103970
     13          6    90000002       -2.732540   -0.998657   -0.383019
     14          6    90000002       -3.583370    0.010418   -1.165816
     15          6    90000002       -5.009435    0.321612   -0.642230
     16          6    90000002       -5.617004    1.395766   -1.559017
     17          7    20001014       -5.808597   -0.893452   -0.722793
     18          6    20001002       -7.065946   -0.956368   -0.195372
     19          6    20001001       -7.612104   -2.354116   -0.014222
     20          8    20001024       -7.696213    0.019511    0.103905
     21          6    20001002       -4.908148    0.736840    0.843049
     22          8    20001024       -4.859533   -0.099820    1.704191
     23          7    20001014       -4.774292    2.053272    1.113365
     24          6    20001001       -4.725284    2.515119    2.485406
     25          7    20001014        5.834345   -1.109564    0.157519
     26          6    20001002        7.040218   -0.835058    0.732139
     27          6    20001001        8.001039   -2.003964    0.799959
     28          8    20001024        7.327489    0.253202    1.143607
     29          1    20001035        6.874599    2.925822   -1.320507
     30          1    20001035        5.322611    3.106677   -2.123189
     31          1    20001035        6.633147    2.263332   -2.939742
     32          1    20001029        6.259883    0.376580   -1.630329
     33          1    20001034        3.387336    0.565384    1.840245
     34          1    20001034        3.981068   -1.067809    2.139938
     35          1    20001034        5.045457    0.326543    2.323015
     36          1    20001034        4.063829   -1.753415   -1.086479
     37          1    20001034        3.214836   -0.256126   -1.331935
     38          1    20001034        1.947869   -2.320758   -0.503451
     39          1    20001034        2.672068   -2.075155    1.054185
     40          1    20001034        1.509338    0.100271    1.274087
     41          1    20001034        0.422999   -1.220876    1.011049
     42          1    20001033        1.132009    1.010975   -0.946509
     43          1    20001033       -0.770755    0.473065   -2.141287
     44          1    20001034       -0.916920   -2.124867   -0.531749
     45          1    20001034       -1.655455   -1.799987   -2.069847
     46          1    20001034       -3.281041   -1.922176   -0.219821
     47          1    20001034       -2.505776   -0.609243    0.600732
     48          1    20001034       -3.698447   -0.333282   -2.191565
     49          1    20001034       -3.048596    0.951809   -1.212153
     50          1    20001034       -5.740723    0.976050   -2.550538
     51          1    20001034       -4.958763    2.253650   -1.649209
     52          1    20001034       -6.585059    1.719384   -1.207051
     53          1    20001029       -5.294957   -1.743501   -0.674814
     54          1    20001034       -8.689106   -2.308229    0.040776
     55          1    20001034       -7.232390   -2.755403    0.920609
     56          1    20001034       -7.312485   -3.016946   -0.818751
     57          1    20001029       -5.056381    2.708616    0.423249
     58          1    20001035       -4.495269    3.572481    2.486016
     59          1    20001035       -3.951026    1.985773    3.021077
     60          1    20001035       -5.668133    2.354620    2.998271
     61          1    20001029        5.640591   -2.068534   -0.027910
     62          1    20001034        9.007876   -1.623452    0.891948
     63          1    20001034        7.930537   -2.644504   -0.071986
     64          1    20001034        7.775220   -2.600115    1.678259
 ---------------------------------------------------------------------

 SCF Done:  E(RHF) =  -1295.60945948     A.U. after   14 cycles

 The electronic state is 1-A.
 Alpha  occ. eigenvalues --  -20.53557 -20.52089 -20.51646 -20.51640 -15.59489
 Alpha  occ. eigenvalues --  -15.57910 -15.57569 -15.57205 -11.35804 -11.34300
 Alpha  occ. eigenvalues --  -11.33717 -11.33653 -11.28875 -11.28600 -11.24988
 Alpha  occ. eigenvalues --  -11.24663 -11.24280 -11.23830 -11.23454 -11.23210
 Alpha  occ. eigenvalues --  -11.22750 -11.22577 -11.22508 -11.22474 -11.22442
 Alpha  occ. eigenvalues --  -11.22255 -11.21788 -11.20682  -1.40476  -1.39410
 Alpha  occ. eigenvalues --   -1.38435  -1.38135  -1.25385  -1.23593  -1.22626
 Alpha  occ. eigenvalues --   -1.21803  -1.11076  -1.09432  -1.07241  -1.04318
 Alpha  occ. eigenvalues --   -1.01281  -0.99301  -0.98780  -0.95579  -0.95225
 Alpha  occ. eigenvalues --   -0.94675  -0.92523  -0.87437  -0.85705  -0.82476
 Alpha  occ. eigenvalues --   -0.81200  -0.79754  -0.79458  -0.76899  -0.76891
 Alpha  occ. eigenvalues --   -0.72164  -0.71360  -0.70675  -0.69178  -0.68101
 Alpha  occ. eigenvalues --   -0.67006  -0.65513  -0.64606  -0.63928  -0.63586
 Alpha  occ. eigenvalues --   -0.62575  -0.62153  -0.62071  -0.61503  -0.61350
 Alpha  occ. eigenvalues --   -0.61029  -0.59919  -0.59399  -0.58955  -0.58710
 Alpha  occ. eigenvalues --   -0.58187  -0.57599  -0.56547  -0.56236  -0.55981
 Alpha  occ. eigenvalues --   -0.55690  -0.55092  -0.54790  -0.54509  -0.54161
 Alpha  occ. eigenvalues --   -0.53233  -0.53111  -0.52429  -0.52186  -0.51418
 Alpha  occ. eigenvalues --   -0.51051  -0.50654  -0.49853  -0.48918  -0.48694
 Alpha  occ. eigenvalues --   -0.48234  -0.47227  -0.46490  -0.44763  -0.42875
 Alpha  occ. eigenvalues --   -0.42014  -0.41551  -0.41105  -0.38986  -0.38870
 Alpha  occ. eigenvalues --   -0.38313  -0.38034  -0.34753
 Alpha virt. eigenvalues --    0.16923   0.18831   0.19616   0.19891   0.21161
 Alpha virt. eigenvalues --    0.21553   0.21952   0.22994   0.23506   0.24444
 Alpha virt. eigenvalues --    0.25079   0.25520   0.26084   0.26359   0.27384

 Mulliken atomic charges:
              1
     1  C   -0.278436
     2  N   -0.779051
     3  C    0.794365
     4  O   -0.620219
     5  C    0.143684
     6  C   -0.484405
     7  C   -0.360794
     8  C   -0.317851
     9  C   -0.353316
    10  C   -0.179873
    11  C   -0.175963
    12  C   -0.354540
    13  C   -0.310245
    14  C   -0.329770
    15  C    0.090763
    16  C   -0.509978
    17  N   -0.787438
    18  C    0.767384
    19  C   -0.595700
    20  O   -0.613510
    21  C    0.820498
    22  O   -0.640604
    23  N   -0.805438
    24  C   -0.275419
    25  N   -0.852349
    26  C    0.743405
    27  C   -0.588961
    28  O   -0.591164
    29  H    0.185425
    30  H    0.197360
    31  H    0.161939
    32  H    0.390124
    33  H    0.200775
    34  H    0.147417
    35  H    0.213610
    36  H    0.160613
    37  H    0.207197
    38  H    0.169589
    39  H    0.164108
    40  H    0.186757
    41  H    0.175248
    42  H    0.191572
    43  H    0.175421
    44  H    0.173974
    45  H    0.162162
    46  H    0.150824
    47  H    0.198121
    48  H    0.173871
    49  H    0.186979
    50  H    0.183788
    51  H    0.149867
    52  H    0.226694
    53  H    0.389318
    54  H    0.211419
    55  H    0.208856
    56  H    0.176249
    57  H    0.396070
    58  H    0.166448
    59  H    0.198234
    60  H    0.184701
    61  H    0.384142
    62  H    0.218558
    63  H    0.176690
    64  H    0.200809
 Sum of Mulliken atomic charges =   0.00000

 Dipole moment (field-independent basis, Debye):
    X=              2.7437    Y=             -5.2569    Z=             -4.2992  Tot=              7.3243
 Quadrupole moment (field-independent basis, Debye-Ang):
   XX=           -193.3012   YY=           -157.0614   ZZ=           -172.3107
   XY=            -28.2504   XZ=             -4.3525   YZ=             -2.4422

 Normal termination of Gaussian 09 at Thu Dec  5 16:24:33 2019.
