 Gaussian 09, Revision A.02,
 Gaussian 09:  EM64L-G09RevA.02 11-Jun-2009

 ---------------------------------
 #SP HF/6-31G* Geom=(ModRedundant)
 ---------------------------------

 ------------
 paramfit run
 ------------
 Symbolic Z-matrix:
 Charge =  0 Multiplicity = 1

                         Standard orientation:
 ---------------------------------------------------------------------
 Center     Atomic      Atomic             Coordinates (Angstroms)
 Number     Number       Type             X           Y           Z
 ---------------------------------------------------------------------
      1          6    20001001        7.991407   -1.662992    0.639910
      2          7    20001014        6.635531   -1.154714    0.617514
      3          6    20001002        6.063652   -0.808866   -0.559539
      4          8    20001024        6.538369   -1.107939   -1.620173
      5          6    90000001        4.687918   -0.123473   -0.476007
      6          6    90000002        4.397435    0.606158   -1.791720
      7          6    90000002        3.587971   -1.170781   -0.152180
      8          6    90000002        2.464341   -0.794439    0.830394
      9          6    90000002        1.268056    0.004892    0.276671
     10          6    20001004        0.560344   -0.667379   -0.876357
     11          6    20001004       -0.546770   -1.390594   -0.831468
     12          6    90000002       -1.376913   -1.724059    0.384846
     13          6    90000002       -2.663476   -0.890087    0.521991
     14          6    90000002       -3.624033   -1.084392   -0.658893
     15          6    90000002       -5.032709   -0.442952   -0.564909
     16          6    90000002       -5.763354   -0.730323   -1.886661
     17          7    20001014       -5.754860   -1.068498    0.534510
     18          6    20001002       -6.971008   -0.604049    0.944791
     19          6    20001001       -7.413370   -1.090943    2.305692
     20          8    20001024       -7.643789    0.134684    0.280878
     21          6    20001002       -4.868230    1.059776   -0.243224
     22          8    20001024       -4.713108    1.423100    0.891616
     23          7    20001014       -4.803756    1.915851   -1.285797
     24          6    20001001       -4.701271    3.341966   -1.053644
     25          7    20001014        4.651110    0.816529    0.653803
     26          6    20001002        5.488338    1.886002    0.776075
     27          6    20001001        5.066887    2.918532    1.800955
     28          8    20001024        6.491699    1.998648    0.130539
     29          1    20001035        8.709503   -0.909730    0.336787
     30          1    20001035        8.075977   -2.506721   -0.029188
     31          1    20001035        8.221501   -1.989703    1.646225
     32          1    20001029        6.315347   -0.673841    1.425306
     33          1    20001034        4.442831   -0.069837   -2.631900
     34          1    20001034        3.407657    1.050687   -1.747314
     35          1    20001034        5.126303    1.385808   -1.958521
     36          1    20001034        4.112001   -2.024071    0.272686
     37          1    20001034        3.154372   -1.514495   -1.086061
     38          1    20001034        2.076727   -1.728576    1.226329
     39          1    20001034        2.877051   -0.256546    1.677575
     40          1    20001034        1.591335    0.990371   -0.032659
     41          1    20001034        0.578903    0.160618    1.099259
     42          1    20001033        1.021164   -0.528716   -1.840998
     43          1    20001033       -0.911996   -1.791381   -1.764066
     44          1    20001034       -0.791123   -1.594563    1.286816
     45          1    20001034       -1.641511   -2.779964    0.344270
     46          1    20001034       -3.140002   -1.169076    1.457653
     47          1    20001034       -2.402905    0.155467    0.620745
     48          1    20001034       -3.778882   -2.147999   -0.827107
     49          1    20001034       -3.155217   -0.693645   -1.554370
     50          1    20001034       -5.919797   -1.799412   -1.971254
     51          1    20001034       -5.168819   -0.420490   -2.739838
     52          1    20001034       -6.727098   -0.244944   -1.923299
     53          1    20001029       -5.185237   -1.439074    1.260400
     54          1    20001034       -8.485723   -0.995798    2.383580
     55          1    20001034       -6.952189   -0.465009    3.063744
     56          1    20001034       -7.121003   -2.119708    2.486105
     57          1    20001029       -5.169253    1.623186   -2.161050
     58          1    20001035       -4.540662    3.835876   -2.002950
     59          1    20001035       -3.863133    3.546485   -0.403781
     60          1    20001035       -5.598728    3.740248   -0.591371
     61          1    20001029        3.779695    0.879859    1.131478
     62          1    20001034        5.935040    3.486905    2.101349
     63          1    20001034        4.605702    2.467539    2.672426
     64          1    20001034        4.349330    3.596142    1.349558
 ---------------------------------------------------------------------

 SCF Done:  E(RHF) =  -1295.60659945     A.U. after   14 cycles

 The electronic state is 1-A.
 Alpha  occ. eigenvalues --  -20.53332 -20.52488 -20.52186 -20.51560 -15.58947
 Alpha  occ. eigenvalues --  -15.58460 -15.58014 -15.57054 -11.35573 -11.34697
 Alpha  occ. eigenvalues --  -11.34256 -11.33530 -11.29115 -11.28828 -11.25560
 Alpha  occ. eigenvalues --  -11.24544 -11.24478 -11.24135 -11.24056 -11.24020
 Alpha  occ. eigenvalues --  -11.23714 -11.23566 -11.23514 -11.23369 -11.23211
 Alpha  occ. eigenvalues --  -11.22921 -11.22242 -11.20732  -1.40262  -1.39883
 Alpha  occ. eigenvalues --   -1.38610  -1.38302  -1.25290  -1.24052  -1.23174
 Alpha  occ. eigenvalues --   -1.21688  -1.11869  -1.09754  -1.07655  -1.05140
 Alpha  occ. eigenvalues --   -1.01787  -0.99876  -0.99268  -0.95957  -0.95268
 Alpha  occ. eigenvalues --   -0.95092  -0.92775  -0.87454  -0.86145  -0.83398
 Alpha  occ. eigenvalues --   -0.81819  -0.80364  -0.79981  -0.77408  -0.76732
 Alpha  occ. eigenvalues --   -0.73096  -0.71913  -0.71153  -0.69078  -0.68716
 Alpha  occ. eigenvalues --   -0.67598  -0.65277  -0.65046  -0.64362  -0.63195
 Alpha  occ. eigenvalues --   -0.62690  -0.62367  -0.62048  -0.61992  -0.61881
 Alpha  occ. eigenvalues --   -0.61325  -0.60279  -0.59758  -0.59250  -0.59086
 Alpha  occ. eigenvalues --   -0.58533  -0.57808  -0.57111  -0.56897  -0.56517
 Alpha  occ. eigenvalues --   -0.55886  -0.55468  -0.55255  -0.54498  -0.54254
 Alpha  occ. eigenvalues --   -0.53725  -0.53465  -0.52824  -0.52493  -0.52290
 Alpha  occ. eigenvalues --   -0.51640  -0.50511  -0.50300  -0.49746  -0.49281
 Alpha  occ. eigenvalues --   -0.49253  -0.47229  -0.47138  -0.45856  -0.42659
 Alpha  occ. eigenvalues --   -0.42054  -0.41862  -0.41517  -0.39368  -0.38867
 Alpha  occ. eigenvalues --   -0.38837  -0.37847  -0.35782
 Alpha virt. eigenvalues --    0.16010   0.18734   0.19153   0.19760   0.21065
 Alpha virt. eigenvalues --    0.21282   0.21583   0.22473   0.22555   0.23399
 Alpha virt. eigenvalues --    0.24539   0.25335   0.26161   0.26549   0.26758

 Mulliken atomic charges:
              1
     1  C   -0.277956
     2  N   -0.779525
     3  C    0.794518
     4  O   -0.615922
     5  C    0.132075
     6  C   -0.477045
     7  C   -0.347525
     8  C   -0.350646
     9  C   -0.353118
    10  C   -0.177093
    11  C   -0.170443
    12  C   -0.357027
    13  C   -0.310846
    14  C   -0.330158
    15  C    0.090814
    16  C   -0.510105
    17  N   -0.787160
    18  C    0.767227
    19  C   -0.595860
    20  O   -0.613076
    21  C    0.820112
    22  O   -0.640652
    23  N   -0.806115
    24  C   -0.275251
    25  N   -0.868159
    26  C    0.747258
    27  C   -0.591857
    28  O   -0.592453
    29  H    0.184928
    30  H    0.198376
    31  H    0.161329
    32  H    0.389190
    33  H    0.195774
    34  H    0.144542
    35  H    0.210639
    36  H    0.196454
    37  H    0.197185
    38  H    0.189035
    39  H    0.147845
    40  H    0.168377
    41  H    0.180614
    42  H    0.184121
    43  H    0.180153
    44  H    0.174006
    45  H    0.167313
    46  H    0.153552
    47  H    0.195893
    48  H    0.176043
    49  H    0.185308
    50  H    0.185187
    51  H    0.149311
    52  H    0.227742
    53  H    0.389288
    54  H    0.212446
    55  H    0.208637
    56  H    0.176993
    57  H    0.396695
    58  H    0.166356
    59  H    0.196092
    60  H    0.186383
    61  H    0.405796
    62  H    0.218583
    63  H    0.175445
    64  H    0.200354
 Sum of Mulliken atomic charges =   0.00000

 Dipole moment (field-independent basis, Debye):
    X=             -2.4661    Y=             -1.3309    Z=              3.1867  Tot=              4.2436
 Quadrupole moment (field-independent basis, Debye-Ang):
   XX=           -239.9852   YY=           -166.5920   ZZ=           -163.4255
   XY=              9.5740   XZ=             34.8995   YZ=             -8.2672

 Normal termination of Gaussian 09 at Thu Dec  5 16:41:19 2019.
