 Gaussian 09, Revision A.02,
 Gaussian 09:  EM64L-G09RevA.02 11-Jun-2009

 ---------------------------------
 #SP HF/6-31G* Geom=(ModRedundant)
 ---------------------------------

 ------------
 paramfit run
 ------------
 Symbolic Z-matrix:
 Charge =  0 Multiplicity = 1

                         Standard orientation:
 ---------------------------------------------------------------------
 Center     Atomic      Atomic             Coordinates (Angstroms)
 Number     Number       Type             X           Y           Z
 ---------------------------------------------------------------------
      1          6    20001001       -3.570358    2.862016    0.149123
      2          7    20001014       -3.962067    1.477316    0.311655
      3          6    20001002       -4.326016    0.747509   -0.768637
      4          8    20001024       -4.130597    1.117696   -1.893145
      5          6    90000001       -4.886047   -0.658331   -0.486916
      6          6    90000002       -5.663713   -1.155445   -1.710008
      7          6    90000002       -3.732024   -1.628451   -0.114489
      8          6    90000002       -2.491124   -1.696737   -1.022861
      9          6    90000002       -1.398186   -0.628171   -0.822139
     10          6    20001004       -0.843372   -0.572473    0.581912
     11          6    20001004        0.273064   -1.123370    1.030061
     12          6    90000002        1.269204   -1.945751    0.248302
     13          6    90000002        2.546109   -1.183858   -0.149940
     14          6    90000002        3.338275   -0.680179    1.064019
     15          6    90000002        4.733858   -0.052346    0.813381
     16          6    90000002        5.280719    0.421456    2.169812
     17          7    20001014        5.612562   -1.077731    0.267492
     18          6    20001002        6.864496   -0.776808   -0.185460
     19          6    20001001        7.499512   -1.837010   -1.055823
     20          8    20001024        7.425002    0.249310    0.082968
     21          6    20001002        4.586420    1.069491   -0.239458
     22          8    20001024        4.582252    0.803940   -1.411377
     23          7    20001014        4.362393    2.322060    0.213160
     24          6    20001001        4.265478    3.427770   -0.717547
     25          7    20001014       -5.752159   -0.636717    0.700861
     26          6    20001002       -6.879944    0.123326    0.801400
     27          6    20001001       -7.811528   -0.255306    1.934055
     28          8    20001024       -7.114796    1.033144    0.057615
     29          1    20001035       -4.398257    3.479302   -0.180257
     30          1    20001035       -2.777246    2.933693   -0.580644
     31          1    20001035       -3.206350    3.232083    1.099335
     32          1    20001029       -4.366164    1.216655    1.180589
     33          1    20001034       -5.044075   -1.155463   -2.593739
     34          1    20001034       -6.019221   -2.164926   -1.526160
     35          1    20001034       -6.510839   -0.513720   -1.903635
     36          1    20001034       -4.175975   -2.621438   -0.104153
     37          1    20001034       -3.424767   -1.422157    0.905959
     38          1    20001034       -2.034739   -2.666523   -0.847230
     39          1    20001034       -2.793382   -1.690511   -2.064962
     40          1    20001034       -1.779913    0.348283   -1.090812
     41          1    20001034       -0.605344   -0.844457   -1.529569
     42          1    20001033       -1.435347   -0.011763    1.287097
     43          1    20001033        0.513888   -0.972839    2.070785
     44          1    20001034        0.810960   -2.334045   -0.653201
     45          1    20001034        1.545943   -2.813617    0.845645
     46          1    20001034        3.152340   -1.849825   -0.757679
     47          1    20001034        2.281578   -0.353572   -0.791405
     48          1    20001034        3.488885   -1.500527    1.762503
     49          1    20001034        2.743069    0.062831    1.581720
     50          1    20001034        5.444542   -0.445161    2.799668
     51          1    20001034        4.568405    1.062755    2.678461
     52          1    20001034        6.220698    0.941442    2.061210
     53          1    20001029        5.155673   -1.808262   -0.228783
     54          1    20001034        8.570335   -1.701386   -1.053339
     55          1    20001034        7.135275   -1.714586   -2.071436
     56          1    20001034        7.254647   -2.839579   -0.722238
     57          1    20001029        4.609311    2.537305    1.150182
     58          1    20001035        3.966072    4.313148   -0.172218
     59          1    20001035        3.521145    3.208109   -1.468775
     60          1    20001035        5.210261    3.618250   -1.216400
     61          1    20001029       -5.713327   -1.449054    1.275446
     62          1    20001034       -8.433135    0.595004    2.173952
     63          1    20001034       -7.273029   -0.575726    2.818871
     64          1    20001034       -8.450861   -1.070920    1.611830
 ---------------------------------------------------------------------

 SCF Done:  E(RHF) =  -1295.62127179     A.U. after   14 cycles

 The electronic state is 1-A.
 Alpha  occ. eigenvalues --  -20.53648 -20.52076 -20.51832 -20.51630 -15.59597
 Alpha  occ. eigenvalues --  -15.57944 -15.57555 -15.57507 -11.35958 -11.34283
 Alpha  occ. eigenvalues --  -11.33818 -11.33717 -11.29003 -11.28608 -11.25028
 Alpha  occ. eigenvalues --  -11.24903 -11.24358 -11.23960 -11.23446 -11.22674
 Alpha  occ. eigenvalues --  -11.22608 -11.22536 -11.22400 -11.22320 -11.22120
 Alpha  occ. eigenvalues --  -11.21848 -11.21697 -11.20874  -1.40581  -1.39400
 Alpha  occ. eigenvalues --   -1.38681  -1.38124  -1.25423  -1.23582  -1.22655
 Alpha  occ. eigenvalues --   -1.22075  -1.10807  -1.09271  -1.07232  -1.04269
 Alpha  occ. eigenvalues --   -1.01257  -0.99359  -0.98771  -0.95518  -0.95165
 Alpha  occ. eigenvalues --   -0.94613  -0.92192  -0.87216  -0.85745  -0.82954
 Alpha  occ. eigenvalues --   -0.81386  -0.79528  -0.78745  -0.77183  -0.76914
 Alpha  occ. eigenvalues --   -0.71966  -0.71311  -0.71153  -0.68877  -0.68026
 Alpha  occ. eigenvalues --   -0.66796  -0.65945  -0.64580  -0.63940  -0.63774
 Alpha  occ. eigenvalues --   -0.62570  -0.62320  -0.61778  -0.61445  -0.61158
 Alpha  occ. eigenvalues --   -0.60926  -0.59885  -0.59387  -0.58759  -0.58420
 Alpha  occ. eigenvalues --   -0.58235  -0.57833  -0.56671  -0.56410  -0.56228
 Alpha  occ. eigenvalues --   -0.55493  -0.54900  -0.54775  -0.54567  -0.53994
 Alpha  occ. eigenvalues --   -0.53134  -0.52650  -0.52488  -0.52169  -0.51602
 Alpha  occ. eigenvalues --   -0.50988  -0.50466  -0.49808  -0.49271  -0.48509
 Alpha  occ. eigenvalues --   -0.48412  -0.46969  -0.46448  -0.44631  -0.42880
 Alpha  occ. eigenvalues --   -0.41950  -0.41540  -0.41092  -0.39252  -0.38874
 Alpha  occ. eigenvalues --   -0.38332  -0.38314  -0.34600
 Alpha virt. eigenvalues --    0.17229   0.18807   0.19619   0.19952   0.20411
 Alpha virt. eigenvalues --    0.21560   0.21941   0.23076   0.23173   0.23948
 Alpha virt. eigenvalues --    0.25279   0.25618   0.26459   0.27146   0.27484

 Mulliken atomic charges:
              1
     1  C   -0.280131
     2  N   -0.782414
     3  C    0.818225
     4  O   -0.628667
     5  C    0.106573
     6  C   -0.471074
     7  C   -0.335987
     8  C   -0.317285
     9  C   -0.368717
    10  C   -0.175603
    11  C   -0.176741
    12  C   -0.353761
    13  C   -0.310627
    14  C   -0.329054
    15  C    0.091094
    16  C   -0.509570
    17  N   -0.787612
    18  C    0.767273
    19  C   -0.595711
    20  O   -0.613871
    21  C    0.820539
    22  O   -0.639126
    23  N   -0.806114
    24  C   -0.275570
    25  N   -0.843892
    26  C    0.744197
    27  C   -0.588583
    28  O   -0.591623
    29  H    0.187415
    30  H    0.197930
    31  H    0.162378
    32  H    0.390906
    33  H    0.198304
    34  H    0.143962
    35  H    0.212163
    36  H    0.167116
    37  H    0.176555
    38  H    0.164570
    39  H    0.185321
    40  H    0.209181
    41  H    0.176165
    42  H    0.175602
    43  H    0.169497
    44  H    0.177444
    45  H    0.160466
    46  H    0.151464
    47  H    0.199383
    48  H    0.173229
    49  H    0.184656
    50  H    0.183585
    51  H    0.148139
    52  H    0.226735
    53  H    0.389839
    54  H    0.211242
    55  H    0.209601
    56  H    0.176326
    57  H    0.395279
    58  H    0.164647
    59  H    0.199614
    60  H    0.185262
    61  H    0.382980
    62  H    0.218528
    63  H    0.176983
    64  H    0.201364
 Sum of Mulliken atomic charges =   0.00000

 Dipole moment (field-independent basis, Debye):
    X=             -2.3029    Y=             -4.2127    Z=              6.6889  Tot=              8.2335
 Quadrupole moment (field-independent basis, Debye-Ang):
   XX=           -198.4929   YY=           -156.0860   ZZ=           -173.3780
   XY=             11.7367   XZ=            -20.2123   YZ=              9.7833

 Normal termination of Gaussian 09 at Thu Dec  5 16:04:58 2019.
