 Gaussian 09, Revision A.02,
 Gaussian 09:  EM64L-G09RevA.02 11-Jun-2009

 ---------------------------------
 #SP HF/6-31G* Geom=(ModRedundant)
 ---------------------------------

 ------------
 paramfit run
 ------------
 Symbolic Z-matrix:
 Charge =  0 Multiplicity = 1

                         Standard orientation:
 ---------------------------------------------------------------------
 Center     Atomic      Atomic             Coordinates (Angstroms)
 Number     Number       Type             X           Y           Z
 ---------------------------------------------------------------------
      1          6    20001001        5.386588    2.669627   -1.843245
      2          7    20001014        5.218194    1.315140   -1.359249
      3          6    20001002        4.690710    1.097600   -0.131834
      4          8    20001024        4.144224    1.960459    0.497906
      5          6    90000001        4.702635   -0.357753    0.369356
      6          6    90000002        4.522007   -0.377973    1.890805
      7          6    90000002        3.594580   -1.178102   -0.345377
      8          6    90000002        2.367901   -1.638980    0.462389
      9          6    90000002        1.221177   -0.627892    0.660781
     10          6    20001004        0.650050   -0.085369   -0.628311
     11          6    20001004       -0.442092   -0.486853   -1.258226
     12          6    90000002       -1.388097   -1.588500   -0.844461
     13          6    90000002       -2.697214   -1.092403   -0.204409
     14          6    90000002       -3.525742   -0.216245   -1.153515
     15          6    90000002       -4.948212    0.204035   -0.701203
     16          6    90000002       -5.531714    1.117348   -1.791541
     17          7    20001014       -5.769229   -0.993005   -0.580549
     18          6    20001002       -7.029919   -0.943623   -0.059702
     19          6    20001001       -7.602536   -2.280632    0.351786
     20          8    20001024       -7.643475    0.079692    0.064861
     21          6    20001002       -4.846081    0.863561    0.692828
     22          8    20001024       -4.816808    0.184520    1.683775
     23          7    20001014       -4.689252    2.204248    0.736900
     24          6    20001001       -4.638016    2.891393    2.011031
     25          7    20001014        5.959222   -1.020250   -0.009480
     26          6    20001002        7.190830   -0.591939    0.389724
     27          6    20001001        8.312302   -1.591944    0.198914
     28          8    20001024        7.378725    0.499628    0.847236
     29          1    20001035        6.120164    3.217058   -1.262612
     30          1    20001035        4.444794    3.195872   -1.790210
     31          1    20001035        5.707873    2.630051   -2.876475
     32          1    20001029        5.848093    0.627310   -1.700427
     33          1    20001034        3.612813    0.124786    2.183264
     34          1    20001034        4.485301   -1.406743    2.236527
     35          1    20001034        5.345726    0.126669    2.374282
     36          1    20001034        4.087251   -2.073539   -0.717786
     37          1    20001034        3.267094   -0.625137   -1.220171
     38          1    20001034        1.958565   -2.496837   -0.063107
     39          1    20001034        2.680042   -2.002981    1.435757
     40          1    20001034        1.556563    0.198058    1.274530
     41          1    20001034        0.447301   -1.129499    1.231169
     42          1    20001033        1.206206    0.724979   -1.071192
     43          1    20001033       -0.700661    0.025174   -2.171863
     44          1    20001034       -0.901973   -2.258872   -0.146070
     45          1    20001034       -1.627371   -2.187047   -1.722574
     46          1    20001034       -3.263362   -1.965146    0.108915
     47          1    20001034       -2.467815   -0.545634    0.700715
     48          1    20001034       -3.642440   -0.727040   -2.106932
     49          1    20001034       -2.973522    0.694185   -1.354814
     50          1    20001034       -5.658608    0.537613   -2.698395
     51          1    20001034       -4.857386    1.935906   -2.020947
     52          1    20001034       -6.495244    1.512782   -1.506971
     53          1    20001029       -5.271548   -1.831359   -0.385136
     54          1    20001034       -8.678750   -2.207380    0.389989
     55          1    20001034       -7.234546   -2.523927    1.344014
     56          1    20001034       -7.311499   -3.075523   -0.326319
     57          1    20001029       -4.956074    2.737721   -0.056524
     58          1    20001035       -4.388580    3.929354    1.833999
     59          1    20001035       -3.876087    2.447303    2.634629
     60          1    20001035       -5.585992    2.836687    2.536486
     61          1    20001029        5.881664   -1.983952   -0.247832
     62          1    20001034        9.252073   -1.060319    0.164594
     63          1    20001034        8.190507   -2.177875   -0.705189
     64          1    20001034        8.330624   -2.272152    1.044363
 ---------------------------------------------------------------------

 SCF Done:  E(RHF) =  -1295.61203593     A.U. after   14 cycles

 The electronic state is 1-A.
 Alpha  occ. eigenvalues --  -20.53573 -20.52031 -20.51769 -20.51557 -15.59526
 Alpha  occ. eigenvalues --  -15.57830 -15.57505 -15.57266 -11.35837 -11.34242
 Alpha  occ. eigenvalues --  -11.33727 -11.33638 -11.28927 -11.28530 -11.24898
 Alpha  occ. eigenvalues --  -11.24743 -11.24304 -11.23880 -11.23373 -11.22915
 Alpha  occ. eigenvalues --  -11.22631 -11.22523 -11.22397 -11.22312 -11.22185
 Alpha  occ. eigenvalues --  -11.22108 -11.21738 -11.20775  -1.40503  -1.39342
 Alpha  occ. eigenvalues --   -1.38535  -1.38063  -1.25420  -1.23528  -1.22546
 Alpha  occ. eigenvalues --   -1.21884  -1.10924  -1.09351  -1.07185  -1.04233
 Alpha  occ. eigenvalues --   -1.01232  -0.99260  -0.98715  -0.95490  -0.95220
 Alpha  occ. eigenvalues --   -0.94593  -0.92423  -0.87464  -0.85671  -0.82488
 Alpha  occ. eigenvalues --   -0.81301  -0.79503  -0.79218  -0.76974  -0.76826
 Alpha  occ. eigenvalues --   -0.72013  -0.71285  -0.70764  -0.69130  -0.68006
 Alpha  occ. eigenvalues --   -0.66833  -0.65474  -0.64546  -0.63958  -0.63550
 Alpha  occ. eigenvalues --   -0.62705  -0.62212  -0.61944  -0.61430  -0.61270
 Alpha  occ. eigenvalues --   -0.60953  -0.59722  -0.59324  -0.58869  -0.58662
 Alpha  occ. eigenvalues --   -0.58265  -0.57602  -0.56544  -0.56256  -0.56013
 Alpha  occ. eigenvalues --   -0.55636  -0.54960  -0.54723  -0.54452  -0.54000
 Alpha  occ. eigenvalues --   -0.53191  -0.53014  -0.52264  -0.52066  -0.51384
 Alpha  occ. eigenvalues --   -0.51117  -0.50528  -0.49786  -0.48906  -0.48681
 Alpha  occ. eigenvalues --   -0.48166  -0.47302  -0.46401  -0.44609  -0.42822
 Alpha  occ. eigenvalues --   -0.42078  -0.41477  -0.41045  -0.39117  -0.38799
 Alpha  occ. eigenvalues --   -0.38233  -0.38079  -0.34600
 Alpha virt. eigenvalues --    0.17097   0.18898   0.19683   0.19896   0.20880
 Alpha virt. eigenvalues --    0.21619   0.22005   0.23047   0.23513   0.24267
 Alpha virt. eigenvalues --    0.25062   0.25573   0.26503   0.26644   0.27537

 Mulliken atomic charges:
              1
     1  C   -0.278204
     2  N   -0.779863
     3  C    0.797066
     4  O   -0.621576
     5  C    0.143923
     6  C   -0.484431
     7  C   -0.356542
     8  C   -0.314165
     9  C   -0.359470
    10  C   -0.177386
    11  C   -0.177139
    12  C   -0.354086
    13  C   -0.310262
    14  C   -0.329607
    15  C    0.090832
    16  C   -0.509881
    17  N   -0.787520
    18  C    0.767384
    19  C   -0.595679
    20  O   -0.613619
    21  C    0.820601
    22  O   -0.640393
    23  N   -0.805385
    24  C   -0.275481
    25  N   -0.854445
    26  C    0.744137
    27  C   -0.589241
    28  O   -0.591391
    29  H    0.185683
    30  H    0.196877
    31  H    0.162120
    32  H    0.390376
    33  H    0.199438
    34  H    0.146742
    35  H    0.214115
    36  H    0.152173
    37  H    0.204836
    38  H    0.167131
    39  H    0.171505
    40  H    0.196762
    41  H    0.173955
    42  H    0.188337
    43  H    0.173654
    44  H    0.174602
    45  H    0.161232
    46  H    0.150579
    47  H    0.198821
    48  H    0.173382
    49  H    0.186855
    50  H    0.183498
    51  H    0.149604
    52  H    0.226578
    53  H    0.389404
    54  H    0.211247
    55  H    0.209020
    56  H    0.176152
    57  H    0.395791
    58  H    0.166261
    59  H    0.198956
    60  H    0.184438
    61  H    0.385122
    62  H    0.218690
    63  H    0.176950
    64  H    0.200936
 Sum of Mulliken atomic charges =   0.00000

 Dipole moment (field-independent basis, Debye):
    X=              3.2798    Y=             -5.2586    Z=             -4.8344  Tot=              7.8601
 Quadrupole moment (field-independent basis, Debye-Ang):
   XX=           -189.2476   YY=           -156.0012   ZZ=           -172.7751
   XY=            -24.2862   XZ=             -7.0931   YZ=             -5.8528

 Normal termination of Gaussian 09 at Thu Dec  5 16:34:36 2019.
