 Gaussian 09, Revision A.02,
 Gaussian 09:  EM64L-G09RevA.02 11-Jun-2009

 ---------------------------------
 #SP HF/6-31G* Geom=(ModRedundant)
 ---------------------------------

 ------------
 paramfit run
 ------------
 Symbolic Z-matrix:
 Charge =  0 Multiplicity = 1

                         Standard orientation:
 ---------------------------------------------------------------------
 Center     Atomic      Atomic             Coordinates (Angstroms)
 Number     Number       Type             X           Y           Z
 ---------------------------------------------------------------------
      1          6    20001001        8.012876   -1.777890    0.290128
      2          7    20001014        6.681653   -1.226187    0.434051
      3          6    20001002        5.998983   -0.816042   -0.660413
      4          8    20001024        6.345488   -1.087929   -1.776548
      5          6    90000001        4.665822   -0.091006   -0.402749
      6          6    90000002        4.261572    0.698943   -1.651910
      7          6    90000002        3.570265   -1.114722    0.001435
      8          6    90000002        2.436390   -0.663858    0.939882
      9          6    90000002        1.239304    0.076470    0.310966
     10          6    20001004        0.545243   -0.697098   -0.785461
     11          6    20001004       -0.557397   -1.421833   -0.686981
     12          6    90000002       -1.394976   -1.656029    0.547267
     13          6    90000002       -2.688065   -0.822737    0.603034
     14          6    90000002       -3.637890   -1.124321   -0.563925
     15          6    90000002       -5.051471   -0.487429   -0.535577
     16          6    90000002       -5.769658   -0.892120   -1.833221
     17          7    20001014       -5.778207   -1.021844    0.608009
     18          6    20001002       -7.000619   -0.532832    0.968054
     19          6    20001001       -7.450579   -0.904708    2.362346
     20          8    20001024       -7.672954    0.141492    0.238400
     21          6    20001002       -4.899475    1.038464   -0.342513
     22          8    20001024       -4.755791    1.498662    0.758170
     23          7    20001014       -4.832353    1.802651   -1.454040
     24          6    20001001       -4.741131    3.244104   -1.344078
     25          7    20001014        4.784895    0.804300    0.757285
     26          6    20001002        5.668340    1.840888    0.825711
     27          6    20001001        5.397275    2.845004    1.926798
     28          8    20001024        6.599633    1.946940    0.078994
     29          1    20001035        8.720716   -1.036495   -0.062356
     30          1    20001035        7.994401   -2.596778   -0.414005
     31          1    20001035        8.338252   -2.151286    1.252967
     32          1    20001029        6.467949   -0.767663    1.288669
     33          1    20001034        4.191759    0.055583   -2.515708
     34          1    20001034        3.298984    1.172676   -1.483861
     35          1    20001034        4.995764    1.460961   -1.869205
     36          1    20001034        4.096515   -1.924711    0.501637
     37          1    20001034        3.146391   -1.540208   -0.902763
     38          1    20001034        2.051810   -1.563483    1.411465
     39          1    20001034        2.838787   -0.052478    1.740922
     40          1    20001034        1.558527    1.034190   -0.079204
     41          1    20001034        0.542612    0.296997    1.112104
     42          1    20001033        1.012803   -0.638133   -1.755010
     43          1    20001033       -0.912536   -1.903577   -1.584511
     44          1    20001034       -0.817254   -1.445595    1.439131
     45          1    20001034       -1.652272   -2.713426    0.595285
     46          1    20001034       -3.170172   -1.024103    1.555609
     47          1    20001034       -2.435193    0.229294    0.613836
     48          1    20001034       -3.784374   -2.199516   -0.641605
     49          1    20001034       -3.164549   -0.808228   -1.486086
     50          1    20001034       -5.918367   -1.965633   -1.827133
     51          1    20001034       -5.170410   -0.652110   -2.705388
     52          1    20001034       -6.736262   -0.418660   -1.918375
     53          1    20001029       -5.211948   -1.324817    1.367133
     54          1    20001034       -8.524123   -0.811029    2.423901
     55          1    20001034       -6.999585   -0.212884    3.067407
     56          1    20001034       -7.152876   -1.912116    2.632314
     57          1    20001029       -5.188933    1.433533   -2.303695
     58          1    20001035       -4.576232    3.656138   -2.330970
     59          1    20001035       -3.909559    3.509545   -0.707951
     60          1    20001035       -5.644847    3.673954   -0.924220
     61          1    20001029        3.972919    0.876428    1.329160
     62          1    20001034        6.312633    3.373112    2.150837
     63          1    20001034        5.016842    2.374838    2.826668
     64          1    20001034        4.660057    3.562441    1.580973
 ---------------------------------------------------------------------

 SCF Done:  E(RHF) =  -1295.60838023     A.U. after   14 cycles

 The electronic state is 1-A.
 Alpha  occ. eigenvalues --  -20.53325 -20.52449 -20.52131 -20.51566 -15.58941
 Alpha  occ. eigenvalues --  -15.58404 -15.57970 -15.57055 -11.35585 -11.34658
 Alpha  occ. eigenvalues --  -11.34202 -11.33546 -11.29063 -11.28845 -11.25501
 Alpha  occ. eigenvalues --  -11.24567 -11.24543 -11.24133 -11.23996 -11.23837
 Alpha  occ. eigenvalues --  -11.23767 -11.23476 -11.23424 -11.23259 -11.23144
 Alpha  occ. eigenvalues --  -11.22889 -11.22194 -11.20699  -1.40257  -1.39835
 Alpha  occ. eigenvalues --   -1.38564  -1.38304  -1.25254  -1.24006  -1.23118
 Alpha  occ. eigenvalues --   -1.21685  -1.11798  -1.09732  -1.07610  -1.05042
 Alpha  occ. eigenvalues --   -1.01738  -0.99814  -0.99227  -0.95939  -0.95250
 Alpha  occ. eigenvalues --   -0.95061  -0.92755  -0.87449  -0.86100  -0.83304
 Alpha  occ. eigenvalues --   -0.81784  -0.80292  -0.79929  -0.77357  -0.76721
 Alpha  occ. eigenvalues --   -0.72964  -0.71851  -0.71120  -0.69115  -0.68654
 Alpha  occ. eigenvalues --   -0.67547  -0.65377  -0.64993  -0.64296  -0.63120
 Alpha  occ. eigenvalues --   -0.62687  -0.62325  -0.62082  -0.61986  -0.61838
 Alpha  occ. eigenvalues --   -0.61334  -0.60262  -0.59730  -0.59327  -0.59090
 Alpha  occ. eigenvalues --   -0.58323  -0.57796  -0.57032  -0.56837  -0.56464
 Alpha  occ. eigenvalues --   -0.55865  -0.55429  -0.55206  -0.54441  -0.54244
 Alpha  occ. eigenvalues --   -0.53667  -0.53375  -0.52840  -0.52628  -0.52249
 Alpha  occ. eigenvalues --   -0.51613  -0.50449  -0.50258  -0.49711  -0.49224
 Alpha  occ. eigenvalues --   -0.49116  -0.47241  -0.47089  -0.45767  -0.42657
 Alpha  occ. eigenvalues --   -0.42004  -0.41832  -0.41477  -0.39318  -0.38890
 Alpha  occ. eigenvalues --   -0.38790  -0.37847  -0.35686
 Alpha virt. eigenvalues --    0.16109   0.18885   0.19198   0.19783   0.21108
 Alpha virt. eigenvalues --    0.21322   0.21641   0.22522   0.22652   0.23455
 Alpha virt. eigenvalues --    0.24538   0.25444   0.26137   0.26424   0.26789

 Mulliken atomic charges:
              1
     1  C   -0.277849
     2  N   -0.780039
     3  C    0.800463
     4  O   -0.616885
     5  C    0.119009
     6  C   -0.476647
     7  C   -0.343598
     8  C   -0.337054
     9  C   -0.351792
    10  C   -0.178059
    11  C   -0.170815
    12  C   -0.356719
    13  C   -0.310780
    14  C   -0.330137
    15  C    0.090788
    16  C   -0.510101
    17  N   -0.787178
    18  C    0.767254
    19  C   -0.595844
    20  O   -0.613098
    21  C    0.820155
    22  O   -0.640691
    23  N   -0.806036
    24  C   -0.275282
    25  N   -0.866559
    26  C    0.747352
    27  C   -0.592145
    28  O   -0.592482
    29  H    0.184845
    30  H    0.198424
    31  H    0.161343
    32  H    0.389333
    33  H    0.194911
    34  H    0.145746
    35  H    0.210976
    36  H    0.192889
    37  H    0.198661
    38  H    0.186951
    39  H    0.137864
    40  H    0.172966
    41  H    0.179529
    42  H    0.184700
    43  H    0.179848
    44  H    0.173654
    45  H    0.166829
    46  H    0.153200
    47  H    0.196199
    48  H    0.175859
    49  H    0.185538
    50  H    0.185068
    51  H    0.149423
    52  H    0.227635
    53  H    0.389260
    54  H    0.212353
    55  H    0.208617
    56  H    0.176907
    57  H    0.396653
    58  H    0.166396
    59  H    0.196326
    60  H    0.186193
    61  H    0.405258
    62  H    0.218584
    63  H    0.175556
    64  H    0.200274
 Sum of Mulliken atomic charges =   0.00000

 Dipole moment (field-independent basis, Debye):
    X=             -1.8904    Y=             -1.4682    Z=              3.7683  Tot=              4.4643
 Quadrupole moment (field-independent basis, Debye-Ang):
   XX=           -234.2841   YY=           -167.8031   ZZ=           -162.8652
   XY=              9.5223   XZ=             35.6838   YZ=             -7.3942

 Normal termination of Gaussian 09 at Thu Dec  5 16:46:20 2019.
