 Gaussian 09, Revision A.02,
 Gaussian 09:  EM64L-G09RevA.02 11-Jun-2009

 ---------------------------------
 #SP HF/6-31G* Geom=(ModRedundant)
 ---------------------------------

 ------------
 paramfit run
 ------------
 Symbolic Z-matrix:
 Charge =  0 Multiplicity = 1

                         Standard orientation:
 ---------------------------------------------------------------------
 Center     Atomic      Atomic             Coordinates (Angstroms)
 Number     Number       Type             X           Y           Z
 ---------------------------------------------------------------------
      1          6    20001001       -6.959303   -1.205502   -2.305252
      2          7    20001014       -5.849501   -0.848044   -1.446294
      3          6    20001002       -6.014478   -0.829097   -0.102965
      4          8    20001024       -6.972838   -1.309113    0.436364
      5          6    90000001       -4.837974   -0.278179    0.722694
      6          6    90000002       -5.329637    0.109455    2.121211
      7          6    90000002       -3.696177   -1.328423    0.792622
      8          6    90000002       -2.603851   -1.317568   -0.291970
      9          6    90000002       -1.437703   -0.323558   -0.122619
     10          6    20001004       -0.685077   -0.474769    1.178522
     11          6    20001004        0.452921   -1.118596    1.381508
     12          6    90000002        1.281088   -1.863115    0.361909
     13          6    90000002        2.526684   -1.099285   -0.122465
     14          6    90000002        3.510626   -0.789592    1.013696
     15          6    90000002        4.887478   -0.182313    0.639348
     16          6    90000002        5.647842    0.087219    1.948032
     17          7    20001014        5.622534   -1.155327   -0.157187
     18          6    20001002        6.810882   -0.839913   -0.749978
     19          6    20001001        7.256722   -1.795746   -1.832759
     20          8    20001024        7.458311    0.121336   -0.440176
     21          6    20001002        4.650949    1.074343   -0.228750
     22          8    20001024        4.464513    0.967797   -1.411044
     23          7    20001014        4.561658    2.262298    0.407465
     24          6    20001001        4.391707    3.484952   -0.350450
     25          7    20001014       -4.236490    0.881275    0.047926
     26          6    20001002       -4.918013    2.026793   -0.240149
     27          6    20001001       -4.052666    3.215630   -0.603413
     28          8    20001024       -6.114605    2.089418   -0.220504
     29          1    20001035       -7.756782   -0.472766   -2.259700
     30          1    20001035       -7.357060   -2.164600   -2.007522
     31          1    20001035       -6.599052   -1.276761   -3.323827
     32          1    20001029       -5.164421   -0.232907   -1.818527
     33          1    20001034       -5.793017   -0.728683    2.618942
     34          1    20001034       -4.489718    0.455196    2.716389
     35          1    20001034       -6.063922    0.899115    2.056481
     36          1    20001034       -4.186668   -2.298052    0.742999
     37          1    20001034       -3.235127   -1.270788    1.773637
     38          1    20001034       -2.179672   -2.317235   -0.310892
     39          1    20001034       -3.051668   -1.161992   -1.267997
     40          1    20001034       -1.801091    0.692557   -0.205229
     41          1    20001034       -0.767270   -0.470684   -0.962088
     42          1    20001033       -1.138860    0.006888    2.029522
     43          1    20001033        0.848239   -1.116611    2.385242
     44          1    20001034        0.678129   -2.111689   -0.503030
     45          1    20001034        1.593687   -2.811909    0.796267
     46          1    20001034        3.002886   -1.698684   -0.893391
     47          1    20001034        2.217804   -0.182246   -0.606681
     48          1    20001034        3.715638   -1.700473    1.572084
     49          1    20001034        3.036537   -0.102252    1.704459
     50          1    20001034        5.853586   -0.860790    2.431280
     51          1    20001034        5.051272    0.679054    2.634484
     52          1    20001034        6.589048    0.584402    1.767263
     53          1    20001029        5.060676   -1.796977   -0.668374
     54          1    20001034        8.322547   -1.698579   -1.972889
     55          1    20001034        6.757687   -1.526483   -2.758819
     56          1    20001034        7.008815   -2.824833   -1.596316
     57          1    20001029        4.951596    2.342003    1.316809
     58          1    20001035        4.221529    4.299443    0.341333
     59          1    20001035        3.536630    3.393199   -1.003942
     60          1    20001035        5.264021    3.707664   -0.956439
     61          1    20001029       -3.248229    0.964821    0.136850
     62          1    20001034       -4.644685    3.917512   -1.172489
     63          1    20001034       -3.177843    2.927188   -1.175284
     64          1    20001034       -3.717817    3.703619    0.306282
 ---------------------------------------------------------------------

 SCF Done:  E(RHF) =  -1295.60701799     A.U. after   14 cycles

 The electronic state is 1-A.
 Alpha  occ. eigenvalues --  -20.53253 -20.52630 -20.52388 -20.51434 -15.58735
 Alpha  occ. eigenvalues --  -15.58678 -15.58176 -15.57115 -11.35490 -11.34836
 Alpha  occ. eigenvalues --  -11.34459 -11.33439 -11.29318 -11.28708 -11.25786
 Alpha  occ. eigenvalues --  -11.24635 -11.24543 -11.24298 -11.24085 -11.24046
 Alpha  occ. eigenvalues --  -11.23921 -11.23875 -11.23800 -11.23708 -11.23465
 Alpha  occ. eigenvalues --  -11.23025 -11.22437 -11.20732  -1.40183  -1.40057
 Alpha  occ. eigenvalues --   -1.38781  -1.38228  -1.25160  -1.24222  -1.23389
 Alpha  occ. eigenvalues --   -1.21685  -1.12158  -1.09824  -1.07844  -1.05399
 Alpha  occ. eigenvalues --   -1.01865  -0.99928  -0.99380  -0.96013  -0.95372
 Alpha  occ. eigenvalues --   -0.95127  -0.92922  -0.87440  -0.86258  -0.83521
 Alpha  occ. eigenvalues --   -0.81880  -0.80604  -0.80156  -0.77603  -0.76902
 Alpha  occ. eigenvalues --   -0.73647  -0.72136  -0.71116  -0.68958  -0.68813
 Alpha  occ. eigenvalues --   -0.67743  -0.65317  -0.64902  -0.64622  -0.63759
 Alpha  occ. eigenvalues --   -0.62776  -0.62314  -0.62128  -0.62001  -0.61721
 Alpha  occ. eigenvalues --   -0.61065  -0.60207  -0.59776  -0.59459  -0.59339
 Alpha  occ. eigenvalues --   -0.58749  -0.57760  -0.57415  -0.57202  -0.56741
 Alpha  occ. eigenvalues --   -0.56144  -0.55647  -0.55468  -0.54762  -0.54282
 Alpha  occ. eigenvalues --   -0.53932  -0.53558  -0.53021  -0.52538  -0.51996
 Alpha  occ. eigenvalues --   -0.51283  -0.50699  -0.50450  -0.49819  -0.49641
 Alpha  occ. eigenvalues --   -0.49282  -0.47484  -0.47163  -0.46052  -0.42621
 Alpha  occ. eigenvalues --   -0.42241  -0.41706  -0.41663  -0.39558  -0.39046
 Alpha  occ. eigenvalues --   -0.38625  -0.37996  -0.36208
 Alpha virt. eigenvalues --    0.15615   0.18887   0.18958   0.19768   0.20891
 Alpha virt. eigenvalues --    0.21073   0.21507   0.22173   0.22742   0.22993
 Alpha virt. eigenvalues --    0.24303   0.24977   0.26004   0.26601   0.27105

 Mulliken atomic charges:
              1
     1  C   -0.278083
     2  N   -0.782338
     3  C    0.803840
     4  O   -0.621196
     5  C    0.124071
     6  C   -0.471678
     7  C   -0.361521
     8  C   -0.316072
     9  C   -0.381716
    10  C   -0.169901
    11  C   -0.168484
    12  C   -0.358991
    13  C   -0.311348
    14  C   -0.330191
    15  C    0.091048
    16  C   -0.510038
    17  N   -0.787150
    18  C    0.767100
    19  C   -0.595931
    20  O   -0.613021
    21  C    0.819848
    22  O   -0.639992
    23  N   -0.806626
    24  C   -0.275251
    25  N   -0.873949
    26  C    0.746705
    27  C   -0.595224
    28  O   -0.593560
    29  H    0.185474
    30  H    0.198401
    31  H    0.161116
    32  H    0.392286
    33  H    0.197607
    34  H    0.140516
    35  H    0.211543
    36  H    0.201621
    37  H    0.185610
    38  H    0.180876
    39  H    0.175215
    40  H    0.149726
    41  H    0.191737
    42  H    0.176514
    43  H    0.180873
    44  H    0.177108
    45  H    0.169024
    46  H    0.155461
    47  H    0.195315
    48  H    0.176615
    49  H    0.183812
    50  H    0.185566
    51  H    0.148568
    52  H    0.228231
    53  H    0.389490
    54  H    0.212775
    55  H    0.208993
    56  H    0.177291
    57  H    0.396704
    58  H    0.165857
    59  H    0.195565
    60  H    0.187328
    61  H    0.411130
    62  H    0.218387
    63  H    0.177698
    64  H    0.199616
 Sum of Mulliken atomic charges =   0.00000

 Dipole moment (field-independent basis, Debye):
    X=              4.5302    Y=             -0.2479    Z=              0.4352  Tot=              4.5578
 Quadrupole moment (field-independent basis, Debye-Ang):
   XX=           -260.3576   YY=           -160.3193   ZZ=           -164.7286
   XY=            -11.6585   XZ=             21.3487   YZ=              8.9229

 Normal termination of Gaussian 09 at Thu Dec  5 16:15:34 2019.
