 Gaussian 09, Revision A.02,
 Gaussian 09:  EM64L-G09RevA.02 11-Jun-2009

 ---------------------------------
 #SP HF/6-31G* Geom=(ModRedundant)
 ---------------------------------

 ------------
 paramfit run
 ------------
 Symbolic Z-matrix:
 Charge =  0 Multiplicity = 1

                         Standard orientation:
 ---------------------------------------------------------------------
 Center     Atomic      Atomic             Coordinates (Angstroms)
 Number     Number       Type             X           Y           Z
 ---------------------------------------------------------------------
      1          6    20001001        7.862402   -2.044280   -0.320026
      2          7    20001014        6.650474   -1.380946    0.114098
      3          6    20001002        5.807396   -0.848529   -0.801250
      4          8    20001024        5.893216   -1.087992   -1.973870
      5          6    90000001        4.634079   -0.019104   -0.249194
      6          6    90000002        4.069917    0.873878   -1.359215
      7          6    90000002        3.543477   -0.958365    0.333883
      8          6    90000002        2.388288   -0.347112    1.147236
      9          6    90000002        1.193927    0.236083    0.366194
     10          6    20001004        0.528047   -0.749685   -0.565012
     11          6    20001004       -0.567740   -1.456661   -0.340977
     12          6    90000002       -1.423984   -1.453766    0.902643
     13          6    90000002       -2.727344   -0.645104    0.772703
     14          6    90000002       -3.653127   -1.186067   -0.325111
     15          6    90000002       -5.074216   -0.577095   -0.444718
     16          6    90000002       -5.764948   -1.241609   -1.646701
     17          7    20001014       -5.814608   -0.884769    0.771295
     18          6    20001002       -7.048660   -0.352133    1.008937
     19          6    20001001       -7.518579   -0.446720    2.442475
     20          8    20001024       -7.715865    0.154130    0.150056
     21          6    20001002       -4.943165    0.958851   -0.556178
     22          8    20001024       -4.824012    1.630242    0.433249
     23          7    20001014       -4.865445    1.488348   -1.796167
     24          6    20001001       -4.792733    2.924166   -1.973202
     25          7    20001014        5.074225    0.794640    0.893400
     26          6    20001002        6.054357    1.739684    0.816565
     27          6    20001001        6.113637    2.700958    1.985564
     28          8    20001024        6.822631    1.801125   -0.101106
     29          1    20001035        8.556852   -1.352778   -0.783182
     30          1    20001035        7.619587   -2.817014   -1.034621
     31          1    20001035        8.334679   -2.499748    0.541285
     32          1    20001029        6.660561   -0.953485    1.010458
     33          1    20001034        3.762915    0.289373   -2.213051
     34          1    20001034        3.214059    1.424289   -0.980016
     35          1    20001034        4.819287    1.575836   -1.694815
     36          1    20001034        4.070193   -1.645235    0.992670
     37          1    20001034        3.140367   -1.560902   -0.474037
     38          1    20001034        2.005903   -1.140922    1.782267
     39          1    20001034        2.769587    0.416834    1.816840
     40          1    20001034        1.508880    1.102010   -0.201555
     41          1    20001034        0.480870    0.600809    1.097192
     42          1    20001033        1.011747   -0.877272   -1.519931
     43          1    20001033       -0.901598   -2.111998   -1.130175
     44          1    20001034       -0.864372   -1.062166    1.743446
     45          1    20001034       -1.669905   -2.484315    1.155794
     46          1    20001034       -3.223656   -0.660655    1.739040
     47          1    20001034       -2.486809    0.391785    0.578194
     48          1    20001034       -3.785862   -2.257352   -0.189966
     49          1    20001034       -3.167429   -1.052178   -1.284550
     50          1    20001034       -5.901388   -2.294668   -1.429831
     51          1    20001034       -5.153367   -1.170515   -2.540175
     52          1    20001034       -6.735297   -0.808728   -1.838469
     53          1    20001029       -5.258238   -1.022814    1.583765
     54          1    20001034       -8.594040   -0.358520    2.468287
     55          1    20001034       -7.087943    0.377745    3.002773
     56          1    20001034       -7.214071   -1.376092    2.911439
     57          1    20001029       -5.202874    0.952861   -2.560827
     58          1    20001035       -4.615382    3.134698   -3.019694
     59          1    20001035       -3.975497    3.322700   -1.390174
     60          1    20001035       -5.708521    3.415378   -1.660476
     61          1    20001029        4.405261    0.909156    1.622043
     62          1    20001034        7.104289    3.128798    2.035906
     63          1    20001034        5.875723    2.218032    2.926696
     64          1    20001034        5.399027    3.501755    1.824757
 ---------------------------------------------------------------------

 SCF Done:  E(RHF) =  -1295.61386254     A.U. after   14 cycles

 The electronic state is 1-A.
 Alpha  occ. eigenvalues --  -20.53386 -20.52360 -20.52009 -20.51550 -15.59143
 Alpha  occ. eigenvalues --  -15.58280 -15.57871 -15.57080 -11.35680 -11.34570
 Alpha  occ. eigenvalues --  -11.34081 -11.33569 -11.28946 -11.28874 -11.25373
 Alpha  occ. eigenvalues --  -11.24548 -11.24408 -11.24168 -11.23860 -11.23832
 Alpha  occ. eigenvalues --  -11.23424 -11.23294 -11.23192 -11.23013 -11.22989
 Alpha  occ. eigenvalues --  -11.22815 -11.22087 -11.20652  -1.40314  -1.39729
 Alpha  occ. eigenvalues --   -1.38458  -1.38303  -1.25225  -1.23903  -1.22995
 Alpha  occ. eigenvalues --   -1.21685  -1.11627  -1.09671  -1.07519  -1.04821
 Alpha  occ. eigenvalues --   -1.01599  -0.99668  -0.99124  -0.95889  -0.95222
 Alpha  occ. eigenvalues --   -0.94973  -0.92723  -0.87369  -0.85968  -0.83034
 Alpha  occ. eigenvalues --   -0.81353  -0.80392  -0.79826  -0.77243  -0.76728
 Alpha  occ. eigenvalues --   -0.72742  -0.71720  -0.70865  -0.69197  -0.68521
 Alpha  occ. eigenvalues --   -0.67444  -0.65557  -0.64891  -0.64158  -0.63105
 Alpha  occ. eigenvalues --   -0.62654  -0.62245  -0.62191  -0.61878  -0.61733
 Alpha  occ. eigenvalues --   -0.61303  -0.60283  -0.59627  -0.59404  -0.59004
 Alpha  occ. eigenvalues --   -0.58035  -0.57667  -0.56845  -0.56703  -0.56349
 Alpha  occ. eigenvalues --   -0.55777  -0.55330  -0.55095  -0.54355  -0.54238
 Alpha  occ. eigenvalues --   -0.53616  -0.53261  -0.52973  -0.52851  -0.52059
 Alpha  occ. eigenvalues --   -0.51548  -0.50400  -0.50162  -0.49639  -0.49097
 Alpha  occ. eigenvalues --   -0.48672  -0.47205  -0.46944  -0.45567  -0.42719
 Alpha  occ. eigenvalues --   -0.41891  -0.41792  -0.41385  -0.39206  -0.38919
 Alpha  occ. eigenvalues --   -0.38672  -0.37881  -0.35465
 Alpha virt. eigenvalues --    0.16294   0.19021   0.19296   0.19849   0.21199
 Alpha virt. eigenvalues --    0.21405   0.21763   0.22618   0.22897   0.23545
 Alpha virt. eigenvalues --    0.24668   0.25775   0.26045   0.26344   0.27056

 Mulliken atomic charges:
              1
     1  C   -0.277935
     2  N   -0.781457
     3  C    0.811242
     4  O   -0.619589
     5  C    0.099635
     6  C   -0.475182
     7  C   -0.338772
     8  C   -0.323986
     9  C   -0.352076
    10  C   -0.179076
    11  C   -0.172085
    12  C   -0.356061
    13  C   -0.310652
    14  C   -0.330062
    15  C    0.090746
    16  C   -0.510083
    17  N   -0.787225
    18  C    0.767304
    19  C   -0.595810
    20  O   -0.613176
    21  C    0.820237
    22  O   -0.640721
    23  N   -0.805891
    24  C   -0.275328
    25  N   -0.854545
    26  C    0.745913
    27  C   -0.591253
    28  O   -0.592261
    29  H    0.184818
    30  H    0.198483
    31  H    0.161402
    32  H    0.389588
    33  H    0.193770
    34  H    0.144786
    35  H    0.211843
    36  H    0.183266
    37  H    0.201689
    38  H    0.181797
    39  H    0.136052
    40  H    0.181188
    41  H    0.177842
    42  H    0.185552
    43  H    0.179212
    44  H    0.173432
    45  H    0.165722
    46  H    0.152505
    47  H    0.196738
    48  H    0.175445
    49  H    0.185955
    50  H    0.184799
    51  H    0.149621
    52  H    0.227392
    53  H    0.389233
    54  H    0.212133
    55  H    0.208615
    56  H    0.176730
    57  H    0.396549
    58  H    0.166428
    59  H    0.196782
    60  H    0.185816
    61  H    0.397879
    62  H    0.218484
    63  H    0.176222
    64  H    0.200378
 Sum of Mulliken atomic charges =   0.00000

 Dipole moment (field-independent basis, Debye):
    X=             -0.6231    Y=             -1.5432    Z=              4.7994  Tot=              5.0797
 Quadrupole moment (field-independent basis, Debye-Ang):
   XX=           -222.2271   YY=           -169.9878   ZZ=           -161.2888
   XY=             10.3118   XZ=             35.4290   YZ=             -4.6552

 Normal termination of Gaussian 09 at Thu Dec  5 16:56:15 2019.
