 Gaussian 09, Revision A.02,
 Gaussian 09:  EM64L-G09RevA.02 11-Jun-2009

 ---------------------------------
 #SP HF/6-31G* Geom=(ModRedundant)
 ---------------------------------

 ------------
 paramfit run
 ------------
 Symbolic Z-matrix:
 Charge =  0 Multiplicity = 1

                         Standard orientation:
 ---------------------------------------------------------------------
 Center     Atomic      Atomic             Coordinates (Angstroms)
 Number     Number       Type             X           Y           Z
 ---------------------------------------------------------------------
      1          6    20001001       -3.405637    2.544083   -1.289082
      2          7    20001014       -3.756535    1.333100   -0.576597
      3          6    20001002       -4.496850    0.379887   -1.189318
      4          8    20001024       -4.696316    0.378974   -2.372517
      5          6    90000001       -4.964282   -0.793509   -0.309526
      6          6    90000002       -6.135047   -1.510470   -0.990053
      7          6    90000002       -3.782147   -1.764157   -0.041189
      8          6    90000002       -2.562241   -1.732908   -0.979533
      9          6    90000002       -1.486795   -0.659537   -0.718908
     10          6    20001004       -0.899740   -0.702619    0.672417
     11          6    20001004        0.238105   -1.262273    1.050378
     12          6    90000002        1.231763   -1.998012    0.183727
     13          6    90000002        2.482977   -1.178882   -0.181042
     14          6    90000002        3.293588   -0.755209    1.051161
     15          6    90000002        4.669687   -0.078710    0.820193
     16          6    90000002        5.239139    0.298486    2.197472
     17          7    20001014        5.555756   -1.038009    0.175087
     18          6    20001002        6.790085   -0.674527   -0.280290
     19          6    20001001        7.425520   -1.648302   -1.246100
     20          8    20001024        7.335851    0.339372    0.056298
     21          6    20001002        4.474242    1.119237   -0.136599
     22          8    20001024        4.447396    0.947064   -1.325533
     23          7    20001014        4.235664    2.326855    0.419027
     24          6    20001001        4.093972    3.500204   -0.418456
     25          7    20001014       -5.359081   -0.310678    1.021804
     26          6    20001002       -6.357403    0.593888    1.233430
     27          6    20001001       -6.844638    0.690623    2.664291
     28          8    20001024       -6.810583    1.273480    0.356547
     29          1    20001035       -4.277793    3.147923   -1.511953
     30          1    20001035       -2.916197    2.291952   -2.218384
     31          1    20001035       -2.721422    3.118898   -0.677697
     32          1    20001029       -3.838632    1.392746    0.411324
     33          1    20001034       -5.864023   -1.851073   -1.977711
     34          1    20001034       -6.433484   -2.364795   -0.389801
     35          1    20001034       -6.976990   -0.841626   -1.093518
     36          1    20001034       -4.205408   -2.764468   -0.099926
     37          1    20001034       -3.454786   -1.632345    0.985329
     38          1    20001034       -2.082123   -2.703166   -0.891752
     39          1    20001034       -2.889453   -1.651094   -2.010849
     40          1    20001034       -1.894658    0.326374   -0.900545
     41          1    20001034       -0.706896   -0.801609   -1.458778
     42          1    20001033       -1.485938   -0.212648    1.432952
     43          1    20001033        0.500688   -1.189113    2.094150
     44          1    20001034        0.760048   -2.323957   -0.735354
     45          1    20001034        1.540357   -2.903994    0.703883
     46          1    20001034        3.087905   -1.781137   -0.853148
     47          1    20001034        2.186293   -0.306597   -0.748429
     48          1    20001034        3.477571   -1.624622    1.678699
     49          1    20001034        2.695952   -0.068813    1.639415
     50          1    20001034        5.435625   -0.611325    2.752646
     51          1    20001034        4.526308    0.881630    2.771228
     52          1    20001034        6.165459    0.846166    2.109632
     53          1    20001029        5.102075   -1.737017   -0.367382
     54          1    20001034        8.493110   -1.489558   -1.256701
     55          1    20001034        7.034627   -1.454151   -2.240400
     56          1    20001034        7.209188   -2.679278   -0.987888
     57          1    20001029        4.500535    2.472838    1.364460
     58          1    20001035        3.789754    4.332873    0.202057
     59          1    20001035        3.336476    3.324101   -1.167998
     60          1    20001035        5.022453    3.750423   -0.921512
     61          1    20001029       -5.145751   -0.919751    1.780136
     62          1    20001034       -7.317579    1.651182    2.807907
     63          1    20001034       -6.040356    0.568315    3.381035
     64          1    20001034       -7.580140   -0.087036    2.843416
 ---------------------------------------------------------------------

 SCF Done:  E(RHF) =  -1295.60854634     A.U. after   14 cycles

 The electronic state is 1-A.
 Alpha  occ. eigenvalues --  -20.53645 -20.52200 -20.51950 -20.51818 -15.59576
 Alpha  occ. eigenvalues --  -15.58147 -15.57691 -15.57312 -11.35899 -11.34404
 Alpha  occ. eigenvalues --  -11.33903 -11.33820 -11.28959 -11.28773 -11.25260
 Alpha  occ. eigenvalues --  -11.24958 -11.24357 -11.23800 -11.23626 -11.22786
 Alpha  occ. eigenvalues --  -11.22663 -11.22633 -11.22582 -11.22490 -11.22472
 Alpha  occ. eigenvalues --  -11.22002 -11.21368 -11.20931  -1.40574  -1.39554
 Alpha  occ. eigenvalues --   -1.38736  -1.38282  -1.25463  -1.23725  -1.22857
 Alpha  occ. eigenvalues --   -1.22204  -1.10940  -1.09318  -1.07385  -1.04383
 Alpha  occ. eigenvalues --   -1.01350  -0.99481  -0.98903  -0.95593  -0.95316
 Alpha  occ. eigenvalues --   -0.94750  -0.92244  -0.87104  -0.85844  -0.83342
 Alpha  occ. eigenvalues --   -0.81631  -0.79687  -0.78763  -0.77224  -0.77090
 Alpha  occ. eigenvalues --   -0.72237  -0.71482  -0.71182  -0.68727  -0.68202
 Alpha  occ. eigenvalues --   -0.67118  -0.66089  -0.64843  -0.64116  -0.63951
 Alpha  occ. eigenvalues --   -0.62609  -0.62407  -0.61920  -0.61582  -0.61228
 Alpha  occ. eigenvalues --   -0.60906  -0.59716  -0.59515  -0.58910  -0.58575
 Alpha  occ. eigenvalues --   -0.58374  -0.57755  -0.56831  -0.56540  -0.56226
 Alpha  occ. eigenvalues --   -0.55493  -0.55101  -0.54891  -0.54649  -0.54143
 Alpha  occ. eigenvalues --   -0.53344  -0.52639  -0.52422  -0.52224  -0.51797
 Alpha  occ. eigenvalues --   -0.51158  -0.50703  -0.49967  -0.49312  -0.48669
 Alpha  occ. eigenvalues --   -0.48120  -0.47091  -0.46620  -0.44914  -0.42881
 Alpha  occ. eigenvalues --   -0.42137  -0.41705  -0.41221  -0.39094  -0.39044
 Alpha  occ. eigenvalues --   -0.38511  -0.37916  -0.34821
 Alpha virt. eigenvalues --    0.16989   0.18731   0.19465   0.19727   0.20289
 Alpha virt. eigenvalues --    0.21407   0.21761   0.22961   0.23257   0.23987
 Alpha virt. eigenvalues --    0.25037   0.25670   0.26178   0.26914   0.27338

 Mulliken atomic charges:
              1
     1  C   -0.284093
     2  N   -0.793765
     3  C    0.808646
     4  O   -0.621627
     5  C    0.136621
     6  C   -0.472959
     7  C   -0.349169
     8  C   -0.340548
     9  C   -0.362923
    10  C   -0.172487
    11  C   -0.175745
    12  C   -0.354259
    13  C   -0.310955
    14  C   -0.329068
    15  C    0.091179
    16  C   -0.509565
    17  N   -0.787545
    18  C    0.767170
    19  C   -0.595757
    20  O   -0.613872
    21  C    0.820357
    22  O   -0.638898
    23  N   -0.806494
    24  C   -0.275360
    25  N   -0.852567
    26  C    0.743784
    27  C   -0.588803
    28  O   -0.591073
    29  H    0.191626
    30  H    0.197188
    31  H    0.164269
    32  H    0.393075
    33  H    0.197281
    34  H    0.144452
    35  H    0.210878
    36  H    0.181944
    37  H    0.166288
    38  H    0.167917
    39  H    0.198263
    40  H    0.224810
    41  H    0.172667
    42  H    0.157892
    43  H    0.169474
    44  H    0.180075
    45  H    0.161485
    46  H    0.152575
    47  H    0.198494
    48  H    0.173875
    49  H    0.183508
    50  H    0.184064
    51  H    0.147683
    52  H    0.227028
    53  H    0.390008
    54  H    0.211514
    55  H    0.209686
    56  H    0.176653
    57  H    0.395476
    58  H    0.164352
    59  H    0.198354
    60  H    0.186070
    61  H    0.384792
    62  H    0.218445
    63  H    0.176256
    64  H    0.201359
 Sum of Mulliken atomic charges =   0.00000

 Dipole moment (field-independent basis, Debye):
    X=             -0.5545    Y=             -2.7554    Z=              7.1087  Tot=              7.6441
 Quadrupole moment (field-independent basis, Debye-Ang):
   XX=           -214.3499   YY=           -156.6399   ZZ=           -172.5440
   XY=              2.5552   XZ=            -24.4991   YZ=              7.2878

 Normal termination of Gaussian 09 at Thu Dec  5 16:21:01 2019.
