 Gaussian 09, Revision A.02,
 Gaussian 09:  EM64L-G09RevA.02 11-Jun-2009

 ---------------------------------
 #SP HF/6-31G* Geom=(ModRedundant)
 ---------------------------------

 ------------
 paramfit run
 ------------
 Symbolic Z-matrix:
 Charge =  0 Multiplicity = 1

                         Standard orientation:
 ---------------------------------------------------------------------
 Center     Atomic      Atomic             Coordinates (Angstroms)
 Number     Number       Type             X           Y           Z
 ---------------------------------------------------------------------
      1          6    20001001       -7.014402    2.158770    1.762357
      2          7    20001014       -6.216324    1.032850    1.323469
      3          6    20001002       -5.255687    1.210732    0.386642
      4          8    20001024       -4.872020    2.297905    0.054077
      5          6    90000001       -4.571958   -0.063022   -0.141990
      6          6    90000002       -3.880751    0.241256   -1.475215
      7          6    90000002       -3.565473   -0.604750    0.909258
      8          6    90000002       -2.386985    0.285503    1.343138
      9          6    90000002       -1.016706   -0.390941    1.546598
     10          6    20001004       -0.510599   -1.132237    0.331438
     11          6    20001004        0.360305   -0.705317   -0.568573
     12          6    90000002        1.063628    0.630279   -0.604250
     13          6    90000002        2.526677    0.588916   -0.127445
     14          6    90000002        3.405263   -0.326667   -0.990410
     15          6    90000002        4.934215   -0.323897   -0.731670
     16          6    90000002        5.567028   -1.360146   -1.674635
     17          7    20001014        5.455396    0.999536   -1.045399
     18          6    20001002        6.749630    1.338784   -0.775347
     19          6    20001001        7.037440    2.822540   -0.796309
     20          8    20001024        7.600019    0.526399   -0.538680
     21          6    20001002        5.179323   -0.597339    0.769622
     22          8    20001024        5.122139    0.300412    1.566305
     23          7    20001014        5.353319   -1.882139    1.147768
     24          6    20001001        5.637926   -2.203404    2.531238
     25          7    20001014       -5.556096   -1.142818   -0.306136
     26          6    20001002       -6.638916   -1.060937   -1.131040
     27          6    20001001       -7.320037   -2.380172   -1.430730
     28          8    20001024       -7.033569   -0.021645   -1.578544
     29          1    20001035       -7.645038    2.540259    0.967553
     30          1    20001035       -6.367458    2.955367    2.099431
     31          1    20001035       -7.636988    1.839897    2.588831
     32          1    20001029       -6.634891    0.133223    1.365398
     33          1    20001034       -3.170695    1.047591   -1.372364
     34          1    20001034       -3.361258   -0.646438   -1.823588
     35          1    20001034       -4.607935    0.537455   -2.217102
     36          1    20001034       -3.141537   -1.505870    0.471673
     37          1    20001034       -4.121316   -0.924548    1.785070
     38          1    20001034       -2.267577    1.036637    0.567794
     39          1    20001034       -2.643695    0.825571    2.248567
     40          1    20001034       -1.060763   -1.074035    2.384931
     41          1    20001034       -0.315269    0.385845    1.830190
     42          1    20001033       -0.912075   -2.123892    0.198954
     43          1    20001033        0.608684   -1.379836   -1.372995
     44          1    20001034        0.529873    1.352520    0.001507
     45          1    20001034        1.033967    1.009779   -1.624884
     46          1    20001034        2.905592    1.607122   -0.134833
     47          1    20001034        2.557132    0.267391    0.905281
     48          1    20001034        3.268486   -0.074058   -2.039702
     49          1    20001034        3.063698   -1.348040   -0.870066
     50          1    20001034        5.429885   -1.028117   -2.697146
     51          1    20001034        5.082373   -2.326246   -1.579018
     52          1    20001034        6.626117   -1.468596   -1.494894
     53          1    20001029        4.803284    1.744855   -0.956167
     54          1    20001034        8.095329    2.975135   -0.946791
     55          1    20001034        6.758242    3.242671    0.165285
     56          1    20001034        6.477637    3.336088   -1.570435
     57          1    20001029        5.630818   -2.543440    0.461483
     58          1    20001035        5.621236   -3.279201    2.646587
     59          1    20001035        4.882672   -1.768825    3.169484
     60          1    20001035        6.607171   -1.826168    2.841094
     61          1    20001029       -5.226883   -2.059185   -0.097717
     62          1    20001034       -8.336978   -2.185950   -1.739084
     63          1    20001034       -7.318284   -3.046715   -0.575588
     64          1    20001034       -6.799686   -2.872536   -2.245968
 ---------------------------------------------------------------------

 SCF Done:  E(RHF) =  -1295.61954503     A.U. after   14 cycles

 The electronic state is 1-A.
 Alpha  occ. eigenvalues --  -20.53509 -20.52141 -20.51815 -20.51484 -15.59478
 Alpha  occ. eigenvalues --  -15.58144 -15.57631 -15.57050 -11.35848 -11.34342
 Alpha  occ. eigenvalues --  -11.33893 -11.33476 -11.28942 -11.28736 -11.25284
 Alpha  occ. eigenvalues --  -11.24538 -11.24277 -11.23865 -11.23598 -11.22930
 Alpha  occ. eigenvalues --  -11.22861 -11.22783 -11.22729 -11.22596 -11.22553
 Alpha  occ. eigenvalues --  -11.22516 -11.21944 -11.20594  -1.40433  -1.39523
 Alpha  occ. eigenvalues --   -1.38273  -1.38253  -1.25259  -1.23673  -1.22854
 Alpha  occ. eigenvalues --   -1.21663  -1.11162  -1.09341  -1.07389  -1.04457
 Alpha  occ. eigenvalues --   -1.01341  -0.99368  -0.98823  -0.95346  -0.95147
 Alpha  occ. eigenvalues --   -0.94760  -0.92392  -0.87127  -0.85732  -0.83112
 Alpha  occ. eigenvalues --   -0.81590  -0.79653  -0.78853  -0.77065  -0.76781
 Alpha  occ. eigenvalues --   -0.72320  -0.71457  -0.70918  -0.69102  -0.68166
 Alpha  occ. eigenvalues --   -0.66912  -0.65684  -0.64615  -0.63965  -0.63610
 Alpha  occ. eigenvalues --   -0.62980  -0.62311  -0.62037  -0.61560  -0.61338
 Alpha  occ. eigenvalues --   -0.60887  -0.59592  -0.59474  -0.58924  -0.58769
 Alpha  occ. eigenvalues --   -0.57909  -0.57342  -0.57047  -0.56544  -0.56070
 Alpha  occ. eigenvalues --   -0.55307  -0.55181  -0.54918  -0.54277  -0.53823
 Alpha  occ. eigenvalues --   -0.53239  -0.52784  -0.52453  -0.51970  -0.51886
 Alpha  occ. eigenvalues --   -0.51158  -0.50518  -0.49936  -0.49099  -0.48903
 Alpha  occ. eigenvalues --   -0.48654  -0.46809  -0.46605  -0.45073  -0.42657
 Alpha  occ. eigenvalues --   -0.41872  -0.41680  -0.41166  -0.39026  -0.39019
 Alpha  occ. eigenvalues --   -0.38495  -0.37879  -0.35128
 Alpha virt. eigenvalues --    0.16615   0.18947   0.19505   0.20316   0.20903
 Alpha virt. eigenvalues --    0.21451   0.21833   0.22918   0.23514   0.23959
 Alpha virt. eigenvalues --    0.24809   0.25739   0.26608   0.26740   0.27184

 Mulliken atomic charges:
              1
     1  C   -0.278256
     2  N   -0.782612
     3  C    0.817505
     4  O   -0.623860
     5  C    0.094248
     6  C   -0.469435
     7  C   -0.326558
     8  C   -0.321642
     9  C   -0.351541
    10  C   -0.177387
    11  C   -0.168698
    12  C   -0.358205
    13  C   -0.311693
    14  C   -0.329538
    15  C    0.091148
    16  C   -0.509767
    17  N   -0.787332
    18  C    0.767062
    19  C   -0.595810
    20  O   -0.614158
    21  C    0.820208
    22  O   -0.639352
    23  N   -0.806380
    24  C   -0.275045
    25  N   -0.842147
    26  C    0.744856
    27  C   -0.588623
    28  O   -0.591471
    29  H    0.184655
    30  H    0.198196
    31  H    0.161214
    32  H    0.389532
    33  H    0.198722
    34  H    0.146149
    35  H    0.210379
    36  H    0.158865
    37  H    0.178552
    38  H    0.191029
    39  H    0.176951
    40  H    0.166713
    41  H    0.182236
    42  H    0.168288
    43  H    0.173911
    44  H    0.182398
    45  H    0.167090
    46  H    0.154553
    47  H    0.196325
    48  H    0.175520
    49  H    0.183192
    50  H    0.184839
    51  H    0.147753
    52  H    0.226940
    53  H    0.390383
    54  H    0.211411
    55  H    0.209392
    56  H    0.177582
    57  H    0.395740
    58  H    0.164483
    59  H    0.197456
    60  H    0.185947
    61  H    0.381982
    62  H    0.218530
    63  H    0.176998
    64  H    0.200578
 Sum of Mulliken atomic charges =   0.00000

 Dipole moment (field-independent basis, Debye):
    X=             -2.1828    Y=             -6.5340    Z=              0.5177  Tot=              6.9084
 Quadrupole moment (field-independent basis, Debye-Ang):
   XX=           -201.2344   YY=           -158.0028   ZZ=           -172.0084
   XY=             26.0738   XZ=            -23.3345   YZ=             -0.1733

 Normal termination of Gaussian 09 at Thu Dec  5 16:19:39 2019.
