 Gaussian 09, Revision A.02,
 Gaussian 09:  EM64L-G09RevA.02 11-Jun-2009

 ---------------------------------
 #SP HF/6-31G* Geom=(ModRedundant)
 ---------------------------------

 ------------
 paramfit run
 ------------
 Symbolic Z-matrix:
 Charge =  0 Multiplicity = 1

                         Standard orientation:
 ---------------------------------------------------------------------
 Center     Atomic      Atomic             Coordinates (Angstroms)
 Number     Number       Type             X           Y           Z
 ---------------------------------------------------------------------
      1          6    20001001        3.418904   -2.924809   -1.137175
      2          7    20001014        4.006778   -1.886789   -0.316099
      3          6    20001002        3.424496   -0.666606   -0.251210
      4          8    20001024        2.317164   -0.457242   -0.663189
      5          6    90000001        4.203189    0.423121    0.507421
      6          6    90000002        3.674822    1.804448    0.106665
      7          6    90000002        4.088793    0.193378    2.039000
      8          6    90000002        2.697011    0.218728    2.696218
      9          6    90000002        1.557017    0.918915    1.930196
     10          6    20001004        1.317187    0.366288    0.544786
     11          6    20001004        0.396220   -0.508408    0.173994
     12          6    90000002       -0.643255   -1.172067    1.045086
     13          6    90000002       -2.055793   -0.574706    0.912939
     14          6    90000002       -2.618945   -0.694612   -0.509521
     15          6    90000002       -4.098936   -0.294850   -0.742897
     16          6    90000002       -4.389962   -0.446303   -2.244835
     17          7    20001014       -4.949859   -1.205909    0.010386
     18          6    20001002       -6.296493   -1.006393    0.109507
     19          6    20001001       -6.977519   -1.787986    1.209563
     20          8    20001024       -6.900804   -0.268388   -0.618022
     21          6    20001002       -4.314633    1.133967   -0.194551
     22          8    20001024       -4.533820    1.307869    0.974056
     23          7    20001014       -4.144891    2.162279   -1.053470
     24          6    20001001       -4.381205    3.523399   -0.617913
     25          7    20001014        5.641538    0.318519    0.221694
     26          6    20001002        6.175095    0.432387   -1.028115
     27          6    20001001        7.673269    0.651094   -1.070091
     28          8    20001024        5.512498    0.353514   -2.023546
     29          1    20001035        3.463138   -2.678264   -2.191788
     30          1    20001035        2.384330   -3.066540   -0.860965
     31          1    20001035        3.957073   -3.848357   -0.964586
     32          1    20001029        4.989392   -1.918230   -0.175504
     33          1    20001034        2.614645    1.886281    0.291761
     34          1    20001034        4.194336    2.569117    0.676424
     35          1    20001034        3.838059    1.978652   -0.946869
     36          1    20001034        4.674160    0.986634    2.498686
     37          1    20001034        4.590633   -0.736928    2.285915
     38          1    20001034        2.405402   -0.817791    2.838383
     39          1    20001034        2.763325    0.651719    3.688939
     40          1    20001034        1.755315    1.980460    1.858328
     41          1    20001034        0.660290    0.822174    2.532155
     42          1    20001033        1.978714    0.741134   -0.219404
     43          1    20001033        0.370941   -0.785781   -0.868208
     44          1    20001034       -0.349427   -1.120672    2.086474
     45          1    20001034       -0.681150   -2.231071    0.792759
     46          1    20001034       -2.697783   -1.083217    1.626829
     47          1    20001034       -2.034931    0.463256    1.217946
     48          1    20001034       -2.518179   -1.722174   -0.852296
     49          1    20001034       -2.016113   -0.085678   -1.172954
     50          1    20001034       -4.311505   -1.494349   -2.509457
     51          1    20001034       -3.663766    0.094888   -2.842440
     52          1    20001034       -5.385022   -0.109526   -2.494190
     53          1    20001029       -4.529724   -1.611995    0.814930
     54          1    20001034       -8.030661   -1.867284    0.986706
     55          1    20001034       -6.858888   -1.246303    2.143175
     56          1    20001034       -6.551369   -2.777954    1.330974
     57          1    20001029       -4.206079    1.979827   -2.027265
     58          1    20001035       -4.075638    4.196894   -1.407819
     59          1    20001035       -3.797091    3.729923    0.266838
     60          1    20001035       -5.427247    3.696216   -0.386215
     61          1    20001029        6.247154    0.532637    0.982569
     62          1    20001034        8.044017    0.343879   -2.037116
     63          1    20001034        8.190093    0.103880   -0.289707
     64          1    20001034        7.882720    1.707904   -0.939383
 ---------------------------------------------------------------------

 SCF Done:  E(RHF) =  -1295.35793877     A.U. after   16 cycles

 The electronic state is 1-A.
 Alpha  occ. eigenvalues --  -20.54251 -20.53218 -20.51120 -20.50516 -15.60355
 Alpha  occ. eigenvalues --  -15.58249 -15.56911 -15.56398 -11.36566 -11.34745
 Alpha  occ. eigenvalues --  -11.33323 -11.32587 -11.30168 -11.27218 -11.25460
 Alpha  occ. eigenvalues --  -11.24809 -11.24533 -11.24248 -11.22714 -11.21755
 Alpha  occ. eigenvalues --  -11.21513 -11.20864 -11.20774 -11.20637 -11.20016
 Alpha  occ. eigenvalues --  -11.19548 -11.16954 -11.15983  -1.44563  -1.41064
 Alpha  occ. eigenvalues --   -1.38368  -1.37086  -1.26470  -1.23508  -1.22404
 Alpha  occ. eigenvalues --   -1.21629  -1.10756  -1.07898  -1.06117  -1.03151
 Alpha  occ. eigenvalues --   -1.00903  -0.99812  -0.98006  -0.96172  -0.95102
 Alpha  occ. eigenvalues --   -0.93853  -0.91557  -0.87261  -0.85281  -0.82540
 Alpha  occ. eigenvalues --   -0.81628  -0.79727  -0.78447  -0.77571  -0.75830
 Alpha  occ. eigenvalues --   -0.74643  -0.70706  -0.70128  -0.69743  -0.68072
 Alpha  occ. eigenvalues --   -0.66856  -0.66332  -0.64562  -0.63707  -0.63517
 Alpha  occ. eigenvalues --   -0.62888  -0.62719  -0.61980  -0.61551  -0.60606
 Alpha  occ. eigenvalues --   -0.60175  -0.59674  -0.59642  -0.58202  -0.57613
 Alpha  occ. eigenvalues --   -0.57402  -0.57202  -0.56361  -0.55546  -0.55259
 Alpha  occ. eigenvalues --   -0.55233  -0.54850  -0.54445  -0.54127  -0.53745
 Alpha  occ. eigenvalues --   -0.53530  -0.52276  -0.52226  -0.51111  -0.50603
 Alpha  occ. eigenvalues --   -0.50156  -0.49027  -0.48850  -0.48464  -0.47641
 Alpha  occ. eigenvalues --   -0.46600  -0.46206  -0.45343  -0.43783  -0.43212
 Alpha  occ. eigenvalues --   -0.41307  -0.40511  -0.40363  -0.40101  -0.37801
 Alpha  occ. eigenvalues --   -0.37240  -0.33823  -0.24063
 Alpha virt. eigenvalues --    0.17674   0.18371   0.19468   0.20359   0.20700
 Alpha virt. eigenvalues --    0.22643   0.23085   0.23575   0.24386   0.24552
 Alpha virt. eigenvalues --    0.25547   0.25987   0.27172   0.27621   0.28464

 Mulliken atomic charges:
              1
     1  C   -0.283132
     2  N   -0.782475
     3  C    0.832826
     4  O   -0.603385
     5  C    0.086673
     6  C   -0.540121
     7  C   -0.322828
     8  C   -0.315070
     9  C   -0.369992
    10  C   -0.237390
    11  C   -0.210010
    12  C   -0.334499
    13  C   -0.300387
    14  C   -0.324967
    15  C    0.089261
    16  C   -0.509308
    17  N   -0.787610
    18  C    0.767476
    19  C   -0.595067
    20  O   -0.616395
    21  C    0.822224
    22  O   -0.642022
    23  N   -0.804804
    24  C   -0.273468
    25  N   -0.842512
    26  C    0.746713
    27  C   -0.589340
    28  O   -0.592481
    29  H    0.183952
    30  H    0.201061
    31  H    0.167032
    32  H    0.394059
    33  H    0.237627
    34  H    0.156417
    35  H    0.216110
    36  H    0.162601
    37  H    0.183023
    38  H    0.173066
    39  H    0.169690
    40  H    0.170538
    41  H    0.181372
    42  H    0.329336
    43  H    0.172757
    44  H    0.153018
    45  H    0.138699
    46  H    0.135028
    47  H    0.187562
    48  H    0.169162
    49  H    0.189666
    50  H    0.182007
    51  H    0.149558
    52  H    0.221945
    53  H    0.390768
    54  H    0.208239
    55  H    0.207913
    56  H    0.175807
    57  H    0.394912
    58  H    0.162796
    59  H    0.197167
    60  H    0.182089
    61  H    0.385483
    62  H    0.220049
    63  H    0.178528
    64  H    0.203053
 Sum of Mulliken atomic charges =   0.00000

 Dipole moment (field-independent basis, Debye):
    X=              9.4443    Y=             -1.5023    Z=              2.0094  Tot=              9.7719
 Quadrupole moment (field-independent basis, Debye-Ang):
   XX=           -156.2604   YY=           -157.9199   ZZ=           -173.8016
   XY=              6.7139   XZ=             15.6130   YZ=             -4.4765

 Normal termination of Gaussian 09 at Thu Dec  5 17:21:57 2019.
