 Gaussian 09, Revision A.02,
 Gaussian 09:  EM64L-G09RevA.02 11-Jun-2009

 ---------------------------------
 #SP HF/6-31G* Geom=(ModRedundant)
 ---------------------------------

 ------------
 paramfit run
 ------------
 Symbolic Z-matrix:
 Charge =  0 Multiplicity = 1

                         Standard orientation:
 ---------------------------------------------------------------------
 Center     Atomic      Atomic             Coordinates (Angstroms)
 Number     Number       Type             X           Y           Z
 ---------------------------------------------------------------------
      1          6    20001001        2.788950    1.964886   -1.695847
      2          7    20001014        3.540974    0.825890   -1.211702
      3          6    20001002        3.635768    0.595762    0.118773
      4          8    20001024        2.943963    1.158076    0.921863
      5          6    90000001        4.588323   -0.533414    0.551192
      6          6    90000002        4.940696   -0.368079    2.033197
      7          6    90000002        3.939075   -1.916278    0.272325
      8          6    90000002        2.613872   -2.273486    0.969374
      9          6    90000002        1.551938   -1.163442    1.098731
     10          6    20001004        1.139385   -0.550776   -0.219115
     11          6    20001004        0.069964   -0.839559   -0.942787
     12          6    90000002       -1.003155   -1.854779   -0.630540
     13          6    90000002       -2.309175   -1.249061   -0.085578
     14          6    90000002       -2.974366   -0.285499   -1.077536
     15          6    90000002       -4.384556    0.258106   -0.730396
     16          6    90000002       -4.791689    1.238054   -1.842780
     17          7    20001014       -5.318514   -0.859244   -0.702473
     18          6    20001002       -6.607568   -0.700952   -0.282543
     19          6    20001001       -7.331402   -1.985115    0.051810
     20          8    20001024       -7.133215    0.372894   -0.184090
     21          6    20001002       -4.336258    0.884107    0.681878
     22          8    20001024       -4.449730    0.190344    1.656427
     23          7    20001014       -4.061778    2.203625    0.768544
     24          6    20001001       -4.051729    2.863663    2.057905
     25          7    20001014        5.805866   -0.520831   -0.272739
     26          6    20001002        6.662760    0.537840   -0.340713
     27          6    20001001        8.016373    0.231409   -0.947304
     28          8    20001024        6.366193    1.635010    0.039293
     29          1    20001035        3.250518    2.903404   -1.411087
     30          1    20001035        1.787191    1.938866   -1.292704
     31          1    20001035        2.733380    1.908675   -2.775711
     32          1    20001029        4.295047    0.505371   -1.772886
     33          1    20001034        4.052954   -0.354158    2.646917
     34          1    20001034        5.576105   -1.190765    2.347331
     35          1    20001034        5.464863    0.562720    2.193788
     36          1    20001034        4.674530   -2.653756    0.586097
     37          1    20001034        3.828761   -2.034543   -0.801045
     38          1    20001034        2.171986   -3.081581    0.393755
     39          1    20001034        2.811339   -2.679596    1.956012
     40          1    20001034        1.910347   -0.381584    1.755699
     41          1    20001034        0.691716   -1.599633    1.594301
     42          1    20001033        1.801347    0.211064   -0.597955
     43          1    20001033       -0.065673   -0.291959   -1.862296
     44          1    20001034       -0.638636   -2.577886    0.088978
     45          1    20001034       -1.223924   -2.415158   -1.538191
     46          1    20001034       -2.976221   -2.070129    0.161945
     47          1    20001034       -2.105127   -0.739723    0.847036
     48          1    20001034       -3.059348   -0.768751   -2.048505
     49          1    20001034       -2.326804    0.572686   -1.213674
     50          1    20001034       -4.896869    0.686407   -2.769712
     51          1    20001034       -4.029039    1.993864   -1.999294
     52          1    20001034       -5.735017    1.716861   -1.626874
     53          1    20001029       -4.916987   -1.743041   -0.487085
     54          1    20001034       -8.395963   -1.812866    0.005957
     55          1    20001034       -7.069017   -2.276524    1.064410
     56          1    20001034       -7.060017   -2.793224   -0.618781
     57          1    20001029       -4.213416    2.771523   -0.031336
     58          1    20001035       -3.695010    3.876551    1.924753
     59          1    20001035       -3.386735    2.341367    2.729929
     60          1    20001035       -5.040292    2.889233    2.504944
     61          1    20001029        6.189123   -1.414745   -0.486232
     62          1    20001034        8.452375    1.150610   -1.310546
     63          1    20001034        7.950414   -0.486843   -1.756818
     64          1    20001034        8.665336   -0.179724   -0.180742
 ---------------------------------------------------------------------

 SCF Done:  E(RHF) =  -1295.58484648     A.U. after   14 cycles

 The electronic state is 1-A.
 Alpha  occ. eigenvalues --  -20.53880 -20.52266 -20.51706 -20.51134 -15.59872
 Alpha  occ. eigenvalues --  -15.57964 -15.57437 -15.57123 -11.36191 -11.34389
 Alpha  occ. eigenvalues --  -11.33915 -11.33221 -11.29388 -11.28088 -11.25395
 Alpha  occ. eigenvalues --  -11.24535 -11.24530 -11.24122 -11.22788 -11.22514
 Alpha  occ. eigenvalues --  -11.22239 -11.21633 -11.21575 -11.21392 -11.21215
 Alpha  occ. eigenvalues --  -11.20671 -11.20297 -11.19966  -1.40897  -1.39741
 Alpha  occ. eigenvalues --   -1.38973  -1.37683  -1.25773  -1.23137  -1.22873
 Alpha  occ. eigenvalues --   -1.22152  -1.10191  -1.08979  -1.06645  -1.03817
 Alpha  occ. eigenvalues --   -1.00923  -0.99176  -0.98417  -0.96136  -0.94786
 Alpha  occ. eigenvalues --   -0.94196  -0.91758  -0.87145  -0.85269  -0.82677
 Alpha  occ. eigenvalues --   -0.81242  -0.79085  -0.78653  -0.78100  -0.76437
 Alpha  occ. eigenvalues --   -0.71729  -0.71267  -0.70595  -0.69400  -0.68034
 Alpha  occ. eigenvalues --   -0.67021  -0.66126  -0.64415  -0.63815  -0.63427
 Alpha  occ. eigenvalues --   -0.62939  -0.61955  -0.61448  -0.61129  -0.60846
 Alpha  occ. eigenvalues --   -0.60453  -0.60059  -0.59441  -0.58767  -0.58281
 Alpha  occ. eigenvalues --   -0.58074  -0.57231  -0.56231  -0.55867  -0.55786
 Alpha  occ. eigenvalues --   -0.55296  -0.54860  -0.54464  -0.54325  -0.53887
 Alpha  occ. eigenvalues --   -0.53246  -0.52668  -0.52486  -0.51852  -0.51548
 Alpha  occ. eigenvalues --   -0.50603  -0.50032  -0.49402  -0.48612  -0.48256
 Alpha  occ. eigenvalues --   -0.47701  -0.46236  -0.45616  -0.43397  -0.43058
 Alpha  occ. eigenvalues --   -0.42283  -0.41072  -0.40707  -0.39882  -0.38450
 Alpha  occ. eigenvalues --   -0.38376  -0.37823  -0.33012
 Alpha virt. eigenvalues --    0.17511   0.18679   0.19431   0.20059   0.20615
 Alpha virt. eigenvalues --    0.22025   0.22503   0.23615   0.23795   0.24118
 Alpha virt. eigenvalues --    0.25587   0.26127   0.26865   0.26990   0.27674

 Mulliken atomic charges:
              1
     1  C   -0.293285
     2  N   -0.786483
     3  C    0.792586
     4  O   -0.620258
     5  C    0.103492
     6  C   -0.470320
     7  C   -0.335757
     8  C   -0.302353
     9  C   -0.407300
    10  C   -0.122832
    11  C   -0.211683
    12  C   -0.348631
    13  C   -0.308605
    14  C   -0.328020
    15  C    0.090695
    16  C   -0.509474
    17  N   -0.787733
    18  C    0.767421
    19  C   -0.595499
    20  O   -0.614469
    21  C    0.821382
    22  O   -0.640431
    23  N   -0.804983
    24  C   -0.275121
    25  N   -0.842760
    26  C    0.744790
    27  C   -0.588804
    28  O   -0.591743
    29  H    0.194488
    30  H    0.202998
    31  H    0.169665
    32  H    0.397601
    33  H    0.195668
    34  H    0.147118
    35  H    0.212878
    36  H    0.162434
    37  H    0.182037
    38  H    0.167399
    39  H    0.164583
    40  H    0.243214
    41  H    0.168433
    42  H    0.201756
    43  H    0.158315
    44  H    0.172192
    45  H    0.154218
    46  H    0.146665
    47  H    0.199141
    48  H    0.171396
    49  H    0.186290
    50  H    0.182510
    51  H    0.148645
    52  H    0.225400
    53  H    0.389918
    54  H    0.210195
    55  H    0.209015
    56  H    0.175924
    57  H    0.394892
    58  H    0.165318
    59  H    0.200340
    60  H    0.182997
    61  H    0.383745
    62  H    0.219076
    63  H    0.177824
    64  H    0.201889
 Sum of Mulliken atomic charges =   0.00000

 Dipole moment (field-independent basis, Debye):
    X=              5.9221    Y=             -4.1716    Z=             -4.7947  Tot=              8.6869
 Quadrupole moment (field-independent basis, Debye-Ang):
   XX=           -168.8228   YY=           -161.8177   ZZ=           -170.7517
   XY=            -15.7458   XZ=             -4.7350   YZ=             -4.2352

 Normal termination of Gaussian 09 at Thu Dec  5 18:08:29 2019.
