 Gaussian 09, Revision A.02,
 Gaussian 09:  EM64L-G09RevA.02 11-Jun-2009

 ---------------------------------
 #SP HF/6-31G* Geom=(ModRedundant)
 ---------------------------------

 ------------
 paramfit run
 ------------
 Symbolic Z-matrix:
 Charge =  0 Multiplicity = 1

                         Standard orientation:
 ---------------------------------------------------------------------
 Center     Atomic      Atomic             Coordinates (Angstroms)
 Number     Number       Type             X           Y           Z
 ---------------------------------------------------------------------
      1          6    20001001       -6.065933    3.115910   -0.627766
      2          7    20001014       -5.567984    1.856693   -0.114282
      3          6    20001002       -5.307726    0.836450   -0.964858
      4          8    20001024       -5.254606    0.985445   -2.154280
      5          6    90000001       -4.943601   -0.513857   -0.321844
      6          6    90000002       -5.136205   -1.637985   -1.345114
      7          6    90000002       -3.485998   -0.475444    0.212496
      8          6    90000002       -2.334104   -0.223107   -0.777000
      9          6    90000002       -1.076933    0.492249   -0.243687
     10          6    20001004       -0.428144   -0.199712    0.932128
     11          6    20001004        0.615953   -1.012288    0.913661
     12          6    90000002        1.417389   -1.450214   -0.288701
     13          6    90000002        2.768204   -0.729162   -0.446654
     14          6    90000002        3.708168   -0.964859    0.743231
     15          6    90000002        5.164834   -0.444270    0.634801
     16          6    90000002        5.867856   -0.749464    1.967493
     17          7    20001014        5.834539   -1.160678   -0.442133
     18          6    20001002        7.085183   -0.810422   -0.861976
     19          6    20001001        7.487731   -1.373881   -2.205580
     20          8    20001024        7.815513   -0.109103   -0.218616
     21          6    20001002        5.124589    1.056189    0.266388
     22          8    20001024        5.001156    1.395659   -0.879671
     23          7    20001014        5.129325    1.946567    1.281861
     24          6    20001001        5.144473    3.368402    1.005528
     25          7    20001014       -5.770688   -0.754019    0.869660
     26          6    20001002       -7.131938   -0.831210    0.842991
     27          6    20001001       -7.766340   -1.429405    2.081464
     28          8    20001024       -7.783340   -0.443936   -0.085359
     29          1    20001035       -7.058086    3.014223   -1.052315
     30          1    20001035       -5.400940    3.486047   -1.394255
     31          1    20001035       -6.097660    3.831864    0.183872
     32          1    20001029       -5.825470    1.608140    0.812113
     33          1    20001034       -4.550123   -1.461970   -2.234191
     34          1    20001034       -4.835711   -2.583568   -0.903736
     35          1    20001034       -6.172569   -1.702148   -1.643040
     36          1    20001034       -3.313268   -1.450517    0.662625
     37          1    20001034       -3.434959    0.246302    1.021668
     38          1    20001034       -2.023969   -1.197694   -1.142534
     39          1    20001034       -2.700277    0.320292   -1.641875
     40          1    20001034       -1.318635    1.510023    0.033946
     41          1    20001034       -0.376343    0.565392   -1.068100
     42          1    20001033       -0.877186    0.006087    1.890315
     43          1    20001033        0.945948   -1.412567    1.859515
     44          1    20001034        0.845280   -1.301152   -1.196411
     45          1    20001034        1.594412   -2.522488   -0.214646
     46          1    20001034        3.221349   -1.075138   -1.371497
     47          1    20001034        2.594414    0.330668   -0.578526
     48          1    20001034        3.775027   -2.031853    0.944690
     49          1    20001034        3.271922   -0.509433    1.624495
     50          1    20001034        5.935955   -1.824642    2.085546
     51          1    20001034        5.299729   -0.365645    2.808501
     52          1    20001034        6.868132   -0.343816    1.992767
     53          1    20001029        5.237300   -1.505632   -1.158390
     54          1    20001034        8.564368   -1.369417   -2.282355
     55          1    20001034        7.080368   -0.736044   -2.984261
     56          1    20001034        7.112158   -2.380313   -2.355322
     57          1    20001029        5.468531    1.652194    2.167068
     58          1    20001035        5.023794    3.902997    1.938568
     59          1    20001035        4.326718    3.620695    0.346550
     60          1    20001035        6.072134    3.677259    0.534564
     61          1    20001029       -5.315513   -1.223051    1.620907
     62          1    20001034       -8.793630   -1.100624    2.141060
     63          1    20001034       -7.240192   -1.150871    2.987631
     64          1    20001034       -7.753883   -2.511590    2.000707
 ---------------------------------------------------------------------

 SCF Done:  E(RHF) =  -1295.62159661     A.U. after   14 cycles

 The electronic state is 1-A.
 Alpha  occ. eigenvalues --  -20.53561 -20.52214 -20.51842 -20.51626 -15.59525
 Alpha  occ. eigenvalues --  -15.58159 -15.57712 -15.57173 -11.35893 -11.34418
 Alpha  occ. eigenvalues --  -11.33925 -11.33610 -11.29036 -11.28803 -11.25264
 Alpha  occ. eigenvalues --  -11.24626 -11.24303 -11.23931 -11.23682 -11.22939
 Alpha  occ. eigenvalues --  -11.22886 -11.22758 -11.22704 -11.22682 -11.22639
 Alpha  occ. eigenvalues --  -11.22512 -11.22015 -11.20774  -1.40490  -1.39573
 Alpha  occ. eigenvalues --   -1.38427  -1.38301  -1.25327  -1.23748  -1.22870
 Alpha  occ. eigenvalues --   -1.21777  -1.11152  -1.09372  -1.07473  -1.04521
 Alpha  occ. eigenvalues --   -1.01382  -0.99426  -0.98889  -0.95359  -0.95256
 Alpha  occ. eigenvalues --   -0.94795  -0.92426  -0.87222  -0.85832  -0.83101
 Alpha  occ. eigenvalues --   -0.81603  -0.79707  -0.78909  -0.77106  -0.76897
 Alpha  occ. eigenvalues --   -0.72300  -0.71493  -0.71068  -0.69184  -0.68187
 Alpha  occ. eigenvalues --   -0.67051  -0.65436  -0.64704  -0.63977  -0.63917
 Alpha  occ. eigenvalues --   -0.62799  -0.62277  -0.62169  -0.61621  -0.61361
 Alpha  occ. eigenvalues --   -0.60655  -0.60263  -0.59453  -0.58950  -0.58744
 Alpha  occ. eigenvalues --   -0.57884  -0.57749  -0.56801  -0.56562  -0.56215
 Alpha  occ. eigenvalues --   -0.55293  -0.55049  -0.54794  -0.54310  -0.54262
 Alpha  occ. eigenvalues --   -0.53340  -0.53065  -0.52349  -0.52097  -0.51702
 Alpha  occ. eigenvalues --   -0.51366  -0.50681  -0.49998  -0.49338  -0.48729
 Alpha  occ. eigenvalues --   -0.48210  -0.47422  -0.46700  -0.45150  -0.42727
 Alpha  occ. eigenvalues --   -0.41939  -0.41729  -0.41236  -0.39127  -0.39062
 Alpha  occ. eigenvalues --   -0.38528  -0.37958  -0.35102
 Alpha virt. eigenvalues --    0.16891   0.18875   0.19450   0.20145   0.20635
 Alpha virt. eigenvalues --    0.21389   0.21766   0.22961   0.23557   0.24183
 Alpha virt. eigenvalues --    0.24762   0.25178   0.26036   0.26932   0.27304

 Mulliken atomic charges:
              1
     1  C   -0.278532
     2  N   -0.782159
     3  C    0.818283
     4  O   -0.624335
     5  C    0.098609
     6  C   -0.471789
     7  C   -0.330489
     8  C   -0.323113
     9  C   -0.352689
    10  C   -0.176034
    11  C   -0.173301
    12  C   -0.356280
    13  C   -0.311020
    14  C   -0.329397
    15  C    0.091199
    16  C   -0.509691
    17  N   -0.787514
    18  C    0.767140
    19  C   -0.595776
    20  O   -0.613805
    21  C    0.820257
    22  O   -0.639093
    23  N   -0.806308
    24  C   -0.275339
    25  N   -0.843357
    26  C    0.744841
    27  C   -0.588513
    28  O   -0.591617
    29  H    0.185283
    30  H    0.198287
    31  H    0.161469
    32  H    0.390025
    33  H    0.200089
    34  H    0.143253
    35  H    0.211712
    36  H    0.164647
    37  H    0.172901
    38  H    0.165061
    39  H    0.204429
    40  H    0.174932
    41  H    0.181300
    42  H    0.170357
    43  H    0.172585
    44  H    0.179935
    45  H    0.163134
    46  H    0.153462
    47  H    0.197948
    48  H    0.174186
    49  H    0.184014
    50  H    0.184161
    51  H    0.148027
    52  H    0.227146
    53  H    0.389970
    54  H    0.211596
    55  H    0.209699
    56  H    0.176788
    57  H    0.395627
    58  H    0.164736
    59  H    0.198243
    60  H    0.185923
    61  H    0.382330
    62  H    0.218603
    63  H    0.176934
    64  H    0.201030
 Sum of Mulliken atomic charges =   0.00000

 Dipole moment (field-independent basis, Debye):
    X=             -0.5247    Y=             -2.8583    Z=              7.0487  Tot=              7.6243
 Quadrupole moment (field-independent basis, Debye-Ang):
   XX=           -221.0748   YY=           -158.5718   ZZ=           -166.9031
   XY=             -3.5023   XZ=            -29.7832   YZ=              9.0276

 Normal termination of Gaussian 09 at Thu Dec  5 17:48:34 2019.
