 Gaussian 09, Revision A.02,
 Gaussian 09:  EM64L-G09RevA.02 11-Jun-2009

 ---------------------------------
 #SP HF/6-31G* Geom=(ModRedundant)
 ---------------------------------

 ------------
 paramfit run
 ------------
 Symbolic Z-matrix:
 Charge =  0 Multiplicity = 1

                         Standard orientation:
 ---------------------------------------------------------------------
 Center     Atomic      Atomic             Coordinates (Angstroms)
 Number     Number       Type             X           Y           Z
 ---------------------------------------------------------------------
      1          6    20001001       -5.352025    3.226119    0.228555
      2          7    20001014       -5.225488    1.810898    0.508525
      3          6    20001002       -4.133151    1.133795    0.083743
      4          8    20001024       -3.149153    1.686649   -0.323501
      5          6    90000001       -4.157649   -0.393222    0.276107
      6          6    90000002       -3.116020   -1.042685   -0.640980
      7          6    90000002       -3.902857   -0.748195    1.766301
      8          6    90000002       -2.575556   -0.322103    2.419260
      9          6    90000002       -1.290884   -1.042530    1.964026
     10          6    20001004       -1.032163   -0.957685    0.478044
     11          6    20001004       -0.224890   -0.120700   -0.153244
     12          6    90000002        0.637524    0.958517    0.456087
     13          6    90000002        2.128492    0.591691    0.565706
     14          6    90000002        2.772570    0.315855   -0.799574
     15          6    90000002        4.308542    0.109178   -0.851726
     16          6    90000002        4.685522   -0.208796   -2.307827
     17          7    20001014        4.957375    1.347164   -0.441926
     18          6    20001002        6.307495    1.416323   -0.253639
     19          6    20001001        6.781906    2.623276    0.522893
     20          8    20001024        7.066525    0.585996   -0.670259
     21          6    20001002        4.690639   -0.995407    0.159520
     22          8    20001024        4.845086   -0.726935    1.320554
     23          7    20001014        4.738794   -2.266042   -0.295614
     24          6    20001001        5.139688   -3.342489    0.586855
     25          7    20001014       -5.498460   -0.924526   -0.009152
     26          6    20001002       -6.121323   -0.798968   -1.215780
     27          6    20001001       -7.318362   -1.704531   -1.418689
     28          8    20001024       -5.758846   -0.021493   -2.052608
     29          1    20001035       -5.455772    3.419501   -0.832949
     30          1    20001035       -4.478229    3.748985    0.588854
     31          1    20001035       -6.224585    3.604230    0.746265
     32          1    20001029       -6.064414    1.287545    0.601214
     33          1    20001034       -2.129905   -0.644906   -0.455826
     34          1    20001034       -3.103513   -2.115116   -0.470765
     35          1    20001034       -3.356614   -0.853489   -1.676956
     36          1    20001034       -3.952694   -1.833407    1.821538
     37          1    20001034       -4.734399   -0.375252    2.355988
     38          1    20001034       -2.451162    0.734599    2.201257
     39          1    20001034       -2.651407   -0.399907    3.498875
     40          1    20001034       -1.324818   -2.083451    2.258467
     41          1    20001034       -0.465688   -0.603011    2.513307
     42          1    20001033       -1.572322   -1.671158   -0.123038
     43          1    20001033       -0.162905   -0.210575   -1.226483
     44          1    20001034        0.277469    1.213611    1.445407
     45          1    20001034        0.537858    1.861549   -0.144907
     46          1    20001034        2.633464    1.408938    1.073137
     47          1    20001034        2.237924   -0.271290    1.209228
     48          1    20001034        2.547533    1.136532   -1.477353
     49          1    20001034        2.317231   -0.571077   -1.224272
     50          1    20001034        4.473632    0.660862   -2.918875
     51          1    20001034        4.093621   -1.030961   -2.696514
     52          1    20001034        5.735139   -0.441951   -2.406224
     53          1    20001029        4.423100    1.925896    0.164977
     54          1    20001034        7.825577    2.794331    0.307134
     55          1    20001034        6.674874    2.416206    1.583455
     56          1    20001034        6.206794    3.512172    0.287325
     57          1    20001029        4.845057   -2.414986   -1.271233
     58          1    20001035        4.996493   -4.283169    0.071553
     59          1    20001035        4.527873   -3.331585    1.476905
     60          1    20001035        6.179503   -3.253177    0.884453
     61          1    20001029       -5.788206   -1.687677    0.561106
     62          1    20001034       -7.951353   -1.280230   -2.184368
     63          1    20001034       -7.888967   -1.841262   -0.506952
     64          1    20001034       -6.975627   -2.678172   -1.753885
 ---------------------------------------------------------------------

 SCF Done:  E(RHF) =  -1295.49589797     A.U. after   14 cycles

 The electronic state is 1-A.
 Alpha  occ. eigenvalues --  -20.53329 -20.51693 -20.51566 -20.51305 -15.59251
 Alpha  occ. eigenvalues --  -15.57665 -15.57135 -15.57099 -11.35656 -11.33895
 Alpha  occ. eigenvalues --  -11.33552 -11.33373 -11.28770 -11.28101 -11.24904
 Alpha  occ. eigenvalues --  -11.24651 -11.24166 -11.24142 -11.22946 -11.22745
 Alpha  occ. eigenvalues --  -11.22717 -11.22192 -11.21624 -11.21451 -11.21356
 Alpha  occ. eigenvalues --  -11.21010 -11.20828 -11.18122  -1.40252  -1.39041
 Alpha  occ. eigenvalues --   -1.38346  -1.37777  -1.25113  -1.23130  -1.22377
 Alpha  occ. eigenvalues --   -1.21723  -1.12053  -1.08839  -1.06707  -1.03834
 Alpha  occ. eigenvalues --   -1.02420  -0.99797  -0.98567  -0.95884  -0.95001
 Alpha  occ. eigenvalues --   -0.94432  -0.91167  -0.87465  -0.85789  -0.83244
 Alpha  occ. eigenvalues --   -0.80978  -0.79153  -0.78602  -0.77017  -0.76562
 Alpha  occ. eigenvalues --   -0.73431  -0.71069  -0.70378  -0.68761  -0.67903
 Alpha  occ. eigenvalues --   -0.66972  -0.65635  -0.64139  -0.63709  -0.63459
 Alpha  occ. eigenvalues --   -0.62590  -0.62263  -0.61576  -0.61125  -0.60919
 Alpha  occ. eigenvalues --   -0.60225  -0.59965  -0.59644  -0.58962  -0.58442
 Alpha  occ. eigenvalues --   -0.58222  -0.57815  -0.56339  -0.56061  -0.55655
 Alpha  occ. eigenvalues --   -0.54890  -0.54555  -0.54460  -0.54269  -0.53997
 Alpha  occ. eigenvalues --   -0.52879  -0.52503  -0.52112  -0.52027  -0.51569
 Alpha  occ. eigenvalues --   -0.50272  -0.49592  -0.49454  -0.48970  -0.47794
 Alpha  occ. eigenvalues --   -0.47432  -0.47312  -0.45411  -0.43224  -0.42439
 Alpha  occ. eigenvalues --   -0.41705  -0.41135  -0.40707  -0.38718  -0.38525
 Alpha  occ. eigenvalues --   -0.37974  -0.37823  -0.30810
 Alpha virt. eigenvalues --    0.17568   0.19091   0.20011   0.20457   0.20712
 Alpha virt. eigenvalues --    0.21941   0.22298   0.22966   0.23728   0.24698
 Alpha virt. eigenvalues --    0.25554   0.25880   0.27047   0.27206   0.27826

 Mulliken atomic charges:
              1
     1  C   -0.277940
     2  N   -0.783402
     3  C    0.818745
     4  O   -0.624278
     5  C    0.122037
     6  C   -0.576478
     7  C   -0.335298
     8  C   -0.324995
     9  C   -0.339104
    10  C   -0.277222
    11  C   -0.139718
    12  C   -0.349329
    13  C   -0.311108
    14  C   -0.328685
    15  C    0.090199
    16  C   -0.509745
    17  N   -0.787015
    18  C    0.767320
    19  C   -0.595638
    20  O   -0.615147
    21  C    0.820880
    22  O   -0.640833
    23  N   -0.806000
    24  C   -0.274277
    25  N   -0.843381
    26  C    0.747001
    27  C   -0.588376
    28  O   -0.592809
    29  H    0.184852
    30  H    0.196607
    31  H    0.161703
    32  H    0.390299
    33  H    0.291313
    34  H    0.144746
    35  H    0.208665
    36  H    0.153810
    37  H    0.182414
    38  H    0.192793
    39  H    0.170472
    40  H    0.166719
    41  H    0.185994
    42  H    0.244560
    43  H    0.173232
    44  H    0.171980
    45  H    0.173252
    46  H    0.149088
    47  H    0.191040
    48  H    0.177516
    49  H    0.183601
    50  H    0.185335
    51  H    0.148274
    52  H    0.224796
    53  H    0.390647
    54  H    0.210150
    55  H    0.208230
    56  H    0.177553
    57  H    0.395665
    58  H    0.163714
    59  H    0.196670
    60  H    0.184618
    61  H    0.380406
    62  H    0.217626
    63  H    0.176441
    64  H    0.199813
 Sum of Mulliken atomic charges =   0.00000

 Dipole moment (field-independent basis, Debye):
    X=             -6.3298    Y=             -3.1057    Z=              2.0767  Tot=              7.3501
 Quadrupole moment (field-independent basis, Debye-Ang):
   XX=           -169.8840   YY=           -152.3350   ZZ=           -177.3639
   XY=             16.5338   XZ=            -20.4554   YZ=              7.7958

 Normal termination of Gaussian 09 at Thu Dec  5 16:57:24 2019.
