 Gaussian 09, Revision A.02,
 Gaussian 09:  EM64L-G09RevA.02 11-Jun-2009

 ---------------------------------
 #SP HF/6-31G* Geom=(ModRedundant)
 ---------------------------------

 ------------
 paramfit run
 ------------
 Symbolic Z-matrix:
 Charge =  0 Multiplicity = 1

                         Standard orientation:
 ---------------------------------------------------------------------
 Center     Atomic      Atomic             Coordinates (Angstroms)
 Number     Number       Type             X           Y           Z
 ---------------------------------------------------------------------
      1          6    20001001        3.140826    2.465523   -1.126892
      2          7    20001014        3.740407    1.167947   -0.894414
      3          6    20001002        3.932874    0.730401    0.371926
      4          8    20001024        3.430156    1.263255    1.322235
      5          6    90000001        4.725421   -0.579708    0.529626
      6          6    90000002        5.251490   -0.691616    1.964398
      7          6    90000002        3.831458   -1.793281    0.155895
      8          6    90000002        2.544688   -2.049201    0.961106
      9          6    90000002        1.472609   -0.941390    0.967219
     10          6    20001004        0.991677   -0.543732   -0.408589
     11          6    20001004       -0.104661   -0.950025   -1.028047
     12          6    90000002       -1.146786   -1.913505   -0.512844
     13          6    90000002       -2.436147   -1.241560   -0.007271
     14          6    90000002       -3.160181   -0.448869   -1.103780
     15          6    90000002       -4.561543    0.130202   -0.778964
     16          6    90000002       -5.033490    0.922570   -2.008951
     17          7    20001014       -5.475893   -0.977063   -0.535121
     18          6    20001002       -6.747016   -0.766355   -0.084671
     19          6    20001001       -7.435095   -1.989194    0.477483
     20          8    20001024       -7.284249    0.305368   -0.128621
     21          6    20001002       -4.459367    0.967811    0.515910
     22          8    20001024       -4.518073    0.432479    1.590109
     23          7    20001014       -4.201713    2.287062    0.384877
     24          6    20001001       -4.143806    3.138938    1.554987
     25          7    20001014        5.836579   -0.625720   -0.431957
     26          6    20001002        6.844840    0.291772   -0.467849
     27          6    20001001        8.059246   -0.118765   -1.274569
     28          8    20001024        6.774383    1.351758    0.086773
     29          1    20001035        3.777944    3.271785   -0.781966
     30          1    20001035        2.195618    2.529054   -0.607981
     31          1    20001035        2.965450    2.579938   -2.189203
     32          1    20001029        4.369122    0.826102   -1.582996
     33          1    20001034        4.446470   -0.637426    2.681294
     34          1    20001034        5.771350   -1.637266    2.085757
     35          1    20001034        5.935902    0.116304    2.178341
     36          1    20001034        4.463480   -2.670473    0.275485
     37          1    20001034        3.592811   -1.732347   -0.901278
     38          1    20001034        2.089878   -2.940361    0.538495
     39          1    20001034        2.792662   -2.295904    1.988248
     40          1    20001034        1.848107   -0.064242    1.478079
     41          1    20001034        0.642439   -1.302683    1.563975
     42          1    20001033        1.624032    0.155700   -0.931117
     43          1    20001033       -0.290041   -0.552630   -2.013680
     44          1    20001034       -0.739078   -2.513359    0.291777
     45          1    20001034       -1.399522   -2.609547   -1.311746
     46          1    20001034       -3.078580   -2.019890    0.395040
     47          1    20001034       -2.198200   -0.592213    0.824930
     48          1    20001034       -3.281329   -1.077397   -1.983445
     49          1    20001034       -2.532767    0.383221   -1.400981
     50          1    20001034       -5.171771    0.233129   -2.833651
     51          1    20001034       -4.290452    1.651327   -2.315857
     52          1    20001034       -5.973429    1.421181   -1.825544
     53          1    20001029       -5.051443   -1.813452   -0.204956
     54          1    20001034       -8.503179   -1.834989    0.455568
     55          1    20001034       -7.122882   -2.118022    1.509496
     56          1    20001034       -7.181721   -2.889147   -0.072306
     57          1    20001029       -4.398000    2.722907   -0.485077
     58          1    20001035       -3.809164    4.121901    1.250492
     59          1    20001035       -3.441212    2.732605    2.267646
     60          1    20001035       -5.111505    3.225230    2.038587
     61          1    20001029        6.042833   -1.524757   -0.807110
     62          1    20001034        8.601136    0.769085   -1.566203
     63          1    20001034        7.792303   -0.690309   -2.156402
     64          1    20001034        8.707107   -0.731614   -0.656109
 ---------------------------------------------------------------------

 SCF Done:  E(RHF) =  -1295.61448702     A.U. after   14 cycles

 The electronic state is 1-A.
 Alpha  occ. eigenvalues --  -20.53777 -20.52129 -20.51879 -20.51360 -15.59745
 Alpha  occ. eigenvalues --  -15.57763 -15.57667 -15.57327 -11.36088 -11.34202
 Alpha  occ. eigenvalues --  -11.34088 -11.33448 -11.29199 -11.28334 -11.25163
 Alpha  occ. eigenvalues --  -11.24744 -11.24449 -11.24082 -11.23106 -11.22603
 Alpha  occ. eigenvalues --  -11.22379 -11.22105 -11.21992 -11.21607 -11.21533
 Alpha  occ. eigenvalues --  -11.21176 -11.21020 -11.20567  -1.40737  -1.39186
 Alpha  occ. eigenvalues --   -1.39169  -1.37887  -1.25606  -1.23347  -1.22440
 Alpha  occ. eigenvalues --   -1.22380  -1.10415  -1.09141  -1.06912  -1.03995
 Alpha  occ. eigenvalues --   -1.01075  -0.99263  -0.98585  -0.95801  -0.94929
 Alpha  occ. eigenvalues --   -0.94374  -0.91928  -0.87203  -0.85490  -0.82708
 Alpha  occ. eigenvalues --   -0.81226  -0.79289  -0.78644  -0.77511  -0.76657
 Alpha  occ. eigenvalues --   -0.71579  -0.71395  -0.70842  -0.68995  -0.67870
 Alpha  occ. eigenvalues --   -0.66835  -0.65961  -0.64548  -0.63848  -0.63615
 Alpha  occ. eigenvalues --   -0.62746  -0.62143  -0.61407  -0.61357  -0.61151
 Alpha  occ. eigenvalues --   -0.60713  -0.59979  -0.59115  -0.58762  -0.58457
 Alpha  occ. eigenvalues --   -0.58287  -0.57551  -0.56323  -0.56259  -0.56024
 Alpha  occ. eigenvalues --   -0.55385  -0.54803  -0.54631  -0.54542  -0.53718
 Alpha  occ. eigenvalues --   -0.53429  -0.52781  -0.52416  -0.51970  -0.51409
 Alpha  occ. eigenvalues --   -0.51193  -0.50261  -0.49611  -0.48957  -0.48473
 Alpha  occ. eigenvalues --   -0.48056  -0.46336  -0.46050  -0.44057  -0.43039
 Alpha  occ. eigenvalues --   -0.42063  -0.41288  -0.40888  -0.39510  -0.38627
 Alpha  occ. eigenvalues --   -0.38273  -0.38052  -0.33846
 Alpha virt. eigenvalues --    0.17714   0.18666   0.19359   0.19863   0.20180
 Alpha virt. eigenvalues --    0.21801   0.22184   0.23467   0.23601   0.24208
 Alpha virt. eigenvalues --    0.25719   0.25862   0.26763   0.27293   0.27738

 Mulliken atomic charges:
              1
     1  C   -0.286406
     2  N   -0.786930
     3  C    0.821346
     4  O   -0.628265
     5  C    0.103009
     6  C   -0.471936
     7  C   -0.336711
     8  C   -0.301924
     9  C   -0.411769
    10  C   -0.184492
    11  C   -0.185913
    12  C   -0.350916
    13  C   -0.309938
    14  C   -0.328597
    15  C    0.090893
    16  C   -0.509488
    17  N   -0.787679
    18  C    0.767367
    19  C   -0.595605
    20  O   -0.614133
    21  C    0.820958
    22  O   -0.639721
    23  N   -0.805640
    24  C   -0.275522
    25  N   -0.842934
    26  C    0.744769
    27  C   -0.588784
    28  O   -0.591954
    29  H    0.191734
    30  H    0.197865
    31  H    0.164590
    32  H    0.393879
    33  H    0.197829
    34  H    0.145516
    35  H    0.212395
    36  H    0.161355
    37  H    0.181490
    38  H    0.165434
    39  H    0.168460
    40  H    0.249880
    41  H    0.171147
    42  H    0.211279
    43  H    0.165526
    44  H    0.175268
    45  H    0.157331
    46  H    0.149076
    47  H    0.199784
    48  H    0.172301
    49  H    0.185480
    50  H    0.183016
    51  H    0.148385
    52  H    0.226072
    53  H    0.389832
    54  H    0.210706
    55  H    0.209300
    56  H    0.176072
    57  H    0.395007
    58  H    0.165013
    59  H    0.200493
    60  H    0.184050
    61  H    0.383272
    62  H    0.218835
    63  H    0.177550
    64  H    0.201692
 Sum of Mulliken atomic charges =   0.00000

 Dipole moment (field-independent basis, Debye):
    X=              4.4130    Y=             -4.4050    Z=             -5.7366  Tot=              8.4728
 Quadrupole moment (field-independent basis, Debye-Ang):
   XX=           -179.9648   YY=           -158.6365   ZZ=           -172.8427
   XY=            -15.8289   XZ=            -11.2618   YZ=             -7.3508

 Normal termination of Gaussian 09 at Thu Dec  5 17:01:55 2019.
