 Gaussian 09, Revision A.02,
 Gaussian 09:  EM64L-G09RevA.02 11-Jun-2009

 ---------------------------------
 #SP HF/6-31G* Geom=(ModRedundant)
 ---------------------------------

 ------------
 paramfit run
 ------------
 Symbolic Z-matrix:
 Charge =  0 Multiplicity = 1

                         Standard orientation:
 ---------------------------------------------------------------------
 Center     Atomic      Atomic             Coordinates (Angstroms)
 Number     Number       Type             X           Y           Z
 ---------------------------------------------------------------------
      1          6    20001001       -4.951369    3.290446   -0.009997
      2          7    20001014       -4.977962    1.893492    0.370865
      3          6    20001002       -3.951611    1.080577    0.027521
      4          8    20001024       -2.906622    1.500331   -0.386665
      5          6    90000001       -4.137870   -0.418327    0.324133
      6          6    90000002       -3.147591   -1.234076   -0.513569
      7          6    90000002       -3.955915   -0.689207    1.842395
      8          6    90000002       -2.607386   -0.353751    2.504645
      9          6    90000002       -1.350704   -1.069421    1.970604
     10          6    20001004       -1.111986   -0.871201    0.492091
     11          6    20001004       -0.290784   -0.007924   -0.083352
     12          6    90000002        0.611029    0.994422    0.596201
     13          6    90000002        2.092433    0.579566    0.650089
     14          6    90000002        2.707855    0.398168   -0.743921
     15          6    90000002        4.236369    0.154793   -0.839090
     16          6    90000002        4.582271   -0.053963   -2.322405
     17          7    20001014        4.926236    1.337329   -0.341876
     18          6    20001002        6.280449    1.354290   -0.171939
     19          6    20001001        6.800601    2.480852    0.691256
     20          8    20001024        7.009214    0.540255   -0.667306
     21          6    20001002        4.602005   -1.038251    0.072876
     22          8    20001024        4.781422   -0.869270    1.248965
     23          7    20001014        4.607157   -2.268553   -0.484178
     24          6    20001001        4.990450   -3.423610    0.301398
     25          7    20001014       -5.519271   -0.830382    0.035391
     26          6    20001002       -6.097508   -0.729523   -1.195520
     27          6    20001001       -7.376445   -1.521568   -1.371880
     28          8    20001024       -5.637366   -0.054886   -2.072603
     29          1    20001035       -5.009798    3.416520   -1.085004
     30          1    20001035       -4.036990    3.746770    0.339865
     31          1    20001035       -5.792164    3.791126    0.453400
     32          1    20001029       -5.868300    1.465720    0.473795
     33          1    20001034       -2.130324   -0.925825   -0.326269
     34          1    20001034       -3.249676   -2.287244   -0.269331
     35          1    20001034       -3.343128   -1.096475   -1.567019
     36          1    20001034       -4.118626   -1.757016    1.970961
     37          1    20001034       -4.758137   -0.192631    2.379175
     38          1    20001034       -2.456259    0.713401    2.370605
     39          1    20001034       -2.669222   -0.516910    3.575593
     40          1    20001034       -1.409821   -2.129515    2.180535
     41          1    20001034       -0.505192   -0.698536    2.539277
     42          1    20001033       -1.681180   -1.518563   -0.155253
     43          1    20001033       -0.247482   -0.011969   -1.161252
     44          1    20001034        0.273255    1.177986    1.608958
     45          1    20001034        0.528095    1.945660    0.071929
     46          1    20001034        2.628005    1.338884    1.213092
     47          1    20001034        2.186903   -0.335487    1.219809
     48          1    20001034        2.496120    1.276994   -1.349203
     49          1    20001034        2.221147   -0.438647   -1.230960
     50          1    20001034        4.386071    0.867888   -2.857456
     51          1    20001034        3.961453   -0.825466   -2.765969
     52          1    20001034        5.623235   -0.306758   -2.457410
     53          1    20001029        4.417805    1.879138    0.318923
     54          1    20001034        7.845364    2.640476    0.472047
     55          1    20001034        6.703637    2.191297    1.733312
     56          1    20001034        6.247545    3.401230    0.538223
     57          1    20001029        4.694496   -2.340582   -1.470329
     58          1    20001035        4.812835   -4.315089   -0.285663
     59          1    20001035        4.392609   -3.468440    1.199843
     60          1    20001035        6.036729   -3.387027    0.587255
     61          1    20001029       -5.899383   -1.517327    0.647902
     62          1    20001034       -7.944262   -1.091551   -2.184064
     63          1    20001034       -7.979252   -1.533973   -0.470758
     64          1    20001034       -7.128158   -2.546452   -1.628332
 ---------------------------------------------------------------------

 SCF Done:  E(RHF) =  -1295.37738127     A.U. after   14 cycles

 The electronic state is 1-A.
 Alpha  occ. eigenvalues --  -20.53112 -20.51695 -20.51412 -20.51296 -15.58967
 Alpha  occ. eigenvalues --  -15.57647 -15.57103 -15.57042 -11.35430 -11.33899
 Alpha  occ. eigenvalues --  -11.33437 -11.33363 -11.28639 -11.28092 -11.24881
 Alpha  occ. eigenvalues --  -11.24612 -11.24025 -11.24004 -11.22928 -11.22738
 Alpha  occ. eigenvalues --  -11.22724 -11.22204 -11.21683 -11.21415 -11.21336
 Alpha  occ. eigenvalues --  -11.21089 -11.19452 -11.16457  -1.40036  -1.39037
 Alpha  occ. eigenvalues --   -1.38256  -1.37773  -1.24892  -1.23131  -1.22360
 Alpha  occ. eigenvalues --   -1.21633  -1.14050  -1.08828  -1.06917  -1.04270
 Alpha  occ. eigenvalues --   -1.03638  -0.99849  -0.98595  -0.96432  -0.94940
 Alpha  occ. eigenvalues --   -0.94439  -0.91044  -0.88650  -0.85763  -0.83407
 Alpha  occ. eigenvalues --   -0.81047  -0.79155  -0.78450  -0.77488  -0.76553
 Alpha  occ. eigenvalues --   -0.75550  -0.71079  -0.70175  -0.68708  -0.68103
 Alpha  occ. eigenvalues --   -0.67132  -0.65521  -0.64217  -0.63657  -0.63465
 Alpha  occ. eigenvalues --   -0.62640  -0.62125  -0.61565  -0.61122  -0.60979
 Alpha  occ. eigenvalues --   -0.60380  -0.60032  -0.59477  -0.58542  -0.58383
 Alpha  occ. eigenvalues --   -0.58220  -0.57324  -0.56374  -0.55789  -0.55629
 Alpha  occ. eigenvalues --   -0.54880  -0.54533  -0.54439  -0.54219  -0.53974
 Alpha  occ. eigenvalues --   -0.53068  -0.52642  -0.52063  -0.51700  -0.51197
 Alpha  occ. eigenvalues --   -0.50174  -0.49542  -0.49435  -0.48416  -0.47691
 Alpha  occ. eigenvalues --   -0.47590  -0.47058  -0.45274  -0.42704  -0.41704
 Alpha  occ. eigenvalues --   -0.41160  -0.40710  -0.40520  -0.38518  -0.38215
 Alpha  occ. eigenvalues --   -0.37955  -0.36248  -0.29224
 Alpha virt. eigenvalues --    0.17318   0.19274   0.20015   0.20632   0.20914
 Alpha virt. eigenvalues --    0.21949   0.22377   0.22876   0.23781   0.24848
 Alpha virt. eigenvalues --    0.25711   0.26052   0.27120   0.27371   0.27981

 Mulliken atomic charges:
              1
     1  C   -0.277550
     2  N   -0.784769
     3  C    0.820387
     4  O   -0.622994
     5  C    0.122560
     6  C   -0.605937
     7  C   -0.331424
     8  C   -0.319294
     9  C   -0.341619
    10  C   -0.248406
    11  C   -0.130394
    12  C   -0.352638
    13  C   -0.312126
    14  C   -0.328663
    15  C    0.089943
    16  C   -0.509770
    17  N   -0.787001
    18  C    0.767374
    19  C   -0.595628
    20  O   -0.615019
    21  C    0.820880
    22  O   -0.641031
    23  N   -0.805883
    24  C   -0.274311
    25  N   -0.841616
    26  C    0.748624
    27  C   -0.588224
    28  O   -0.594442
    29  H    0.184467
    30  H    0.195615
    31  H    0.161537
    32  H    0.390365
    33  H    0.277554
    34  H    0.142020
    35  H    0.210331
    36  H    0.154147
    37  H    0.181353
    38  H    0.185379
    39  H    0.168887
    40  H    0.166970
    41  H    0.188482
    42  H    0.256316
    43  H    0.173200
    44  H    0.170096
    45  H    0.172143
    46  H    0.149380
    47  H    0.191767
    48  H    0.178007
    49  H    0.184175
    50  H    0.185356
    51  H    0.148726
    52  H    0.224730
    53  H    0.390421
    54  H    0.210194
    55  H    0.208173
    56  H    0.177357
    57  H    0.395766
    58  H    0.163899
    59  H    0.196711
    60  H    0.184505
    61  H    0.378997
    62  H    0.216708
    63  H    0.175841
    64  H    0.199398
 Sum of Mulliken atomic charges =   0.00000

 Dipole moment (field-independent basis, Debye):
    X=             -6.3952    Y=             -2.2062    Z=              2.2402  Tot=              7.1263
 Quadrupole moment (field-independent basis, Debye-Ang):
   XX=           -168.6195   YY=           -152.7120   ZZ=           -176.9011
   XY=             14.6713   XZ=            -19.6108   YZ=              7.8622

 Normal termination of Gaussian 09 at Thu Dec  5 17:01:25 2019.
