 Gaussian 09, Revision A.02,
 Gaussian 09:  EM64L-G09RevA.02 11-Jun-2009

 ---------------------------------
 #SP HF/6-31G* Geom=(ModRedundant)
 ---------------------------------

 ------------
 paramfit run
 ------------
 Symbolic Z-matrix:
 Charge =  0 Multiplicity = 1

                         Standard orientation:
 ---------------------------------------------------------------------
 Center     Atomic      Atomic             Coordinates (Angstroms)
 Number     Number       Type             X           Y           Z
 ---------------------------------------------------------------------
      1          6    20001001       -5.728605    3.119649    0.462611
      2          7    20001014       -5.456220    1.708537    0.640972
      3          6    20001002       -4.320764    1.171242    0.136826
      4          8    20001024       -3.410539    1.843522   -0.262266
      5          6    90000001       -4.191184   -0.360044    0.224912
      6          6    90000002       -3.127455   -0.842851   -0.766662
      7          6    90000002       -3.847253   -0.784426    1.678602
      8          6    90000002       -2.543253   -0.273229    2.317272
      9          6    90000002       -1.233442   -0.996290    1.945502
     10          6    20001004       -0.947921   -1.027188    0.462330
     11          6    20001004       -0.148351   -0.224925   -0.221643
     12          6    90000002        0.676524    0.921817    0.311573
     13          6    90000002        2.173263    0.602532    0.477087
     14          6    90000002        2.850063    0.231796   -0.849340
     15          6    90000002        4.391180    0.059925   -0.857444
     16          6    90000002        4.803761   -0.366907   -2.275556
     17          7    20001014        5.002735    1.343156   -0.539871
     18          6    20001002        6.346945    1.461188   -0.334386
     19          6    20001001        6.777752    2.739229    0.348126
     20          8    20001024        7.133183    0.618684   -0.667791
     21          6    20001002        4.779307   -0.948113    0.247971
     22          8    20001024        4.904806   -0.581544    1.385427
     23          7    20001014        4.866064   -2.250201   -0.099911
     24          6    20001001        5.274825   -3.240297    0.875192
     25          7    20001014       -5.484599   -1.000970   -0.053877
     26          6    20001002       -6.161866   -0.859056   -1.228969
     27          6    20001001       -7.273214   -1.862845   -1.455759
     28          8    20001024       -5.907676    0.003092   -2.021578
     29          1    20001035       -5.890552    3.370535   -0.579396
     30          1    20001035       -4.896060    3.701376    0.830286
     31          1    20001035       -6.613224    3.375610    1.032074
     32          1    20001029       -6.236887    1.100285    0.723875
     33          1    20001034       -2.177806   -0.362894   -0.585716
     34          1    20001034       -3.005568   -1.917642   -0.670712
     35          1    20001034       -3.424149   -0.611243   -1.779212
     36          1    20001034       -3.790501   -1.870561    1.660980
     37          1    20001034       -4.687851   -0.534244    2.318198
     38          1    20001034       -2.439433    0.764805    2.015069
     39          1    20001034       -2.638248   -0.264085    3.398135
     40          1    20001034       -1.248699   -2.010074    2.324149
     41          1    20001034       -0.429612   -0.492746    2.470989
     42          1    20001033       -1.459420   -1.800815   -0.087202
     43          1    20001033       -0.063411   -0.400953   -1.282568
     44          1    20001034        0.291413    1.248135    1.270047
     45          1    20001034        0.567437    1.769741   -0.363498
     46          1    20001034        2.648981    1.470991    0.924127
     47          1    20001034        2.290343   -0.201756    1.191399
     48          1    20001034        2.619088    0.988242   -1.596318
     49          1    20001034        2.423977   -0.698066   -1.207330
     50          1    20001034        4.583480    0.444141   -2.959850
     51          1    20001034        4.238958   -1.232695   -2.605388
     52          1    20001034        5.860268   -0.581086   -2.336047
     53          1    20001029        4.443342    1.956207    0.007814
     54          1    20001034        7.821129    2.917996    0.137250
     55          1    20001034        6.654990    2.617242    1.420121
     56          1    20001034        6.186664    3.591181    0.030046
     57          1    20001029        4.994746   -2.475968   -1.057919
     58          1    20001035        5.163760   -4.223354    0.436804
     59          1    20001035        4.645725   -3.171693    1.750492
     60          1    20001035        6.306275   -3.100961    1.182521
     61          1    20001029       -5.677912   -1.824397    0.471619
     62          1    20001034       -7.972557   -1.453955   -2.170392
     63          1    20001034       -7.793126   -2.114065   -0.538083
     64          1    20001034       -6.851482   -2.774171   -1.867376
 ---------------------------------------------------------------------

 SCF Done:  E(RHF) =  -1295.55907367     A.U. after   14 cycles

 The electronic state is 1-A.
 Alpha  occ. eigenvalues --  -20.53363 -20.51766 -20.51592 -20.51399 -15.59296
 Alpha  occ. eigenvalues --  -15.57756 -15.57186 -15.57134 -11.35697 -11.33967
 Alpha  occ. eigenvalues --  -11.33546 -11.33469 -11.28740 -11.28214 -11.24980
 Alpha  occ. eigenvalues --  -11.24635 -11.24189 -11.24103 -11.22901 -11.22848
 Alpha  occ. eigenvalues --  -11.22718 -11.22245 -11.21789 -11.21784 -11.21690
 Alpha  occ. eigenvalues --  -11.21461 -11.21193 -11.18822  -1.40289  -1.39124
 Alpha  occ. eigenvalues --   -1.38369  -1.37860  -1.25135  -1.23221  -1.22467
 Alpha  occ. eigenvalues --   -1.21723  -1.11371  -1.08950  -1.06745  -1.03939
 Alpha  occ. eigenvalues --   -1.01581  -0.99584  -0.98601  -0.95524  -0.95038
 Alpha  occ. eigenvalues --   -0.94484  -0.91354  -0.86938  -0.85799  -0.83139
 Alpha  occ. eigenvalues --   -0.81028  -0.79237  -0.78644  -0.76900  -0.76651
 Alpha  occ. eigenvalues --   -0.72367  -0.71130  -0.70567  -0.68806  -0.67814
 Alpha  occ. eigenvalues --   -0.66713  -0.65706  -0.64207  -0.63758  -0.63563
 Alpha  occ. eigenvalues --   -0.62526  -0.62282  -0.61620  -0.61190  -0.60972
 Alpha  occ. eigenvalues --   -0.60461  -0.59748  -0.59416  -0.59080  -0.58474
 Alpha  occ. eigenvalues --   -0.58236  -0.57794  -0.56409  -0.56213  -0.55722
 Alpha  occ. eigenvalues --   -0.54982  -0.54575  -0.54492  -0.54322  -0.54053
 Alpha  occ. eigenvalues --   -0.52842  -0.52676  -0.52320  -0.51993  -0.51616
 Alpha  occ. eigenvalues --   -0.50271  -0.49764  -0.49514  -0.49207  -0.48038
 Alpha  occ. eigenvalues --   -0.47786  -0.47213  -0.45724  -0.44085  -0.42644
 Alpha  occ. eigenvalues --   -0.41776  -0.41237  -0.40783  -0.38985  -0.38613
 Alpha  occ. eigenvalues --   -0.38070  -0.37924  -0.32114
 Alpha virt. eigenvalues --    0.17385   0.19073   0.19923   0.20397   0.20661
 Alpha virt. eigenvalues --    0.21851   0.22166   0.23118   0.23588   0.24486
 Alpha virt. eigenvalues --    0.25272   0.25708   0.26795   0.27127   0.27645

 Mulliken atomic charges:
              1
     1  C   -0.278095
     2  N   -0.782446
     3  C    0.817380
     4  O   -0.625334
     5  C    0.116752
     6  C   -0.533025
     7  C   -0.336684
     8  C   -0.329532
     9  C   -0.341414
    10  C   -0.231121
    11  C   -0.154562
    12  C   -0.349514
    13  C   -0.310897
    14  C   -0.329074
    15  C    0.090472
    16  C   -0.509766
    17  N   -0.787042
    18  C    0.767260
    19  C   -0.595684
    20  O   -0.615036
    21  C    0.820717
    22  O   -0.640521
    23  N   -0.806123
    24  C   -0.274394
    25  N   -0.843728
    26  C    0.746398
    27  C   -0.588429
    28  O   -0.592417
    29  H    0.184925
    30  H    0.196926
    31  H    0.161660
    32  H    0.390288
    33  H    0.266612
    34  H    0.136427
    35  H    0.206025
    36  H    0.153916
    37  H    0.182603
    38  H    0.198450
    39  H    0.171459
    40  H    0.166115
    41  H    0.183855
    42  H    0.207737
    43  H    0.175948
    44  H    0.175270
    45  H    0.173094
    46  H    0.150155
    47  H    0.191772
    48  H    0.177219
    49  H    0.183302
    50  H    0.185363
    51  H    0.148021
    52  H    0.225209
    53  H    0.390715
    54  H    0.210352
    55  H    0.208397
    56  H    0.177731
    57  H    0.395672
    58  H    0.163790
    59  H    0.196740
    60  H    0.184907
    61  H    0.380851
    62  H    0.217810
    63  H    0.176540
    64  H    0.200005
 Sum of Mulliken atomic charges =   0.00000

 Dipole moment (field-independent basis, Debye):
    X=             -5.7996    Y=             -3.8417    Z=              1.8874  Tot=              7.2081
 Quadrupole moment (field-independent basis, Debye-Ang):
   XX=           -173.0666   YY=           -152.3771   ZZ=           -177.6575
   XY=             18.0534   XZ=            -21.4306   YZ=              7.3587

 Normal termination of Gaussian 09 at Thu Dec  5 16:51:34 2019.
