 Gaussian 09, Revision A.02,
 Gaussian 09:  EM64L-G09RevA.02 11-Jun-2009

 ---------------------------------
 #SP HF/6-31G* Geom=(ModRedundant)
 ---------------------------------

 ------------
 paramfit run
 ------------
 Symbolic Z-matrix:
 Charge =  0 Multiplicity = 1

                         Standard orientation:
 ---------------------------------------------------------------------
 Center     Atomic      Atomic             Coordinates (Angstroms)
 Number     Number       Type             X           Y           Z
 ---------------------------------------------------------------------
      1          6    20001001       -5.431285    3.207388   -0.320209
      2          7    20001014       -5.160005    1.836180    0.058525
      3          6    20001002       -5.092558    0.874256   -0.891349
      4          8    20001024       -5.024591    1.127223   -2.062304
      5          6    90000001       -4.967964   -0.575342   -0.388828
      6          6    90000002       -5.366167   -1.542574   -1.508533
      7          6    90000002       -3.521901   -0.846066    0.108377
      8          6    90000002       -2.352495   -0.704466   -0.882620
      9          6    90000002       -1.145351    0.149757   -0.447027
     10          6    20001004       -0.502889   -0.306036    0.842071
     11          6    20001004        0.576369   -1.058436    0.982972
     12          6    90000002        1.433054   -1.649077   -0.111097
     13          6    90000002        2.754697   -0.898766   -0.355755
     14          6    90000002        3.667194   -0.888539    0.878002
     15          6    90000002        5.101924   -0.322344    0.717937
     16          6    90000002        5.776525   -0.368595    2.098597
     17          7    20001014        5.835594   -1.173050   -0.209187
     18          6    20001002        7.081745   -0.836128   -0.652640
     19          6    20001001        7.550047   -1.593262   -1.874215
     20          8    20001024        7.760060   -0.003349   -0.118311
     21          6    20001002        5.006364    1.092927    0.104259
     22          8    20001024        4.903244    1.232113   -1.084826
     23          7    20001014        4.940304    2.137864    0.957326
     24          6    20001001        4.900720    3.493595    0.448770
     25          7    20001014       -5.813744   -0.781841    0.795843
     26          6    20001002       -7.167281   -0.615692    0.797657
     27          6    20001001       -7.886532   -1.211358    1.990125
     28          8    20001024       -7.748003   -0.031073   -0.072471
     29          1    20001035       -6.429533    3.323617   -0.726340
     30          1    20001035       -4.718125    3.528111   -1.065369
     31          1    20001035       -5.328167    3.834898    0.556119
     32          1    20001029       -5.449125    1.547321    0.963653
     33          1    20001034       -4.766207   -1.386153   -2.392000
     34          1    20001034       -5.234213   -2.564811   -1.166688
     35          1    20001034       -6.400122   -1.394207   -1.783942
     36          1    20001034       -3.520833   -1.875601    0.459485
     37          1    20001034       -3.336329   -0.227184    0.980631
     38          1    20001034       -1.988258   -1.709662   -1.073748
     39          1    20001034       -2.715707   -0.329862   -1.834000
     40          1    20001034       -1.440475    1.186335   -0.348166
     41          1    20001034       -0.423699    0.120005   -1.255832
     42          1    20001033       -0.989873    0.032883    1.742125
     43          1    20001033        0.894604   -1.280462    1.989546
     44          1    20001034        0.883052   -1.680070   -1.043836
     45          1    20001034        1.655207   -2.684454    0.144320
     46          1    20001034        3.250985   -1.370063   -1.199527
     47          1    20001034        2.538104    0.114965   -0.666022
     48          1    20001034        3.775193   -1.903075    1.255608
     49          1    20001034        3.184256   -0.315791    1.660998
     50          1    20001034        5.888689   -1.404899    2.395372
     51          1    20001034        5.166318    0.120515    2.850794
     52          1    20001034        6.756530    0.084114    2.078986
     53          1    20001029        5.276575   -1.660308   -0.871598
     54          1    20001034        8.627272   -1.548856   -1.925948
     55          1    20001034        7.138858   -1.113418   -2.757277
     56          1    20001034        7.224362   -2.627761   -1.863047
     57          1    20001029        5.264893    2.010604    1.886711
     58          1    20001035        4.727777    4.168317    1.276878
     59          1    20001035        4.093198    3.593331   -0.261574
     60          1    20001035        5.827771    3.765492   -0.045600
     61          1    20001029       -5.442231   -1.394749    1.487124
     62          1    20001034       -8.838621   -0.714639    2.107474
     63          1    20001034       -7.311157   -1.119593    2.904495
     64          1    20001034       -8.066983   -2.265727    1.806973
 ---------------------------------------------------------------------

 SCF Done:  E(RHF) =  -1295.61948558     A.U. after   14 cycles

 The electronic state is 1-A.
 Alpha  occ. eigenvalues --  -20.53563 -20.52193 -20.51801 -20.51650 -15.59521
 Alpha  occ. eigenvalues --  -15.58115 -15.57689 -15.57198 -11.35891 -11.34399
 Alpha  occ. eigenvalues --  -11.33886 -11.33622 -11.29002 -11.28771 -11.25210
 Alpha  occ. eigenvalues --  -11.24652 -11.24304 -11.23901 -11.23647 -11.22900
 Alpha  occ. eigenvalues --  -11.22806 -11.22646 -11.22638 -11.22628 -11.22557
 Alpha  occ. eigenvalues --  -11.22482 -11.21987 -11.20789  -1.40492  -1.39543
 Alpha  occ. eigenvalues --   -1.38440  -1.38270  -1.25325  -1.23723  -1.22826
 Alpha  occ. eigenvalues --   -1.21798  -1.11099  -1.09354  -1.07435  -1.04472
 Alpha  occ. eigenvalues --   -1.01360  -0.99405  -0.98869  -0.95321  -0.95280
 Alpha  occ. eigenvalues --   -0.94761  -0.92395  -0.87242  -0.85827  -0.83054
 Alpha  occ. eigenvalues --   -0.81546  -0.79676  -0.78890  -0.77070  -0.76918
 Alpha  occ. eigenvalues --   -0.72231  -0.71458  -0.71090  -0.69128  -0.68161
 Alpha  occ. eigenvalues --   -0.67020  -0.65497  -0.64688  -0.63981  -0.63916
 Alpha  occ. eigenvalues --   -0.62643  -0.62241  -0.62095  -0.61594  -0.61326
 Alpha  occ. eigenvalues --   -0.60477  -0.60444  -0.59436  -0.58910  -0.58660
 Alpha  occ. eigenvalues --   -0.57926  -0.57824  -0.56771  -0.56536  -0.56251
 Alpha  occ. eigenvalues --   -0.55346  -0.55006  -0.54725  -0.54576  -0.54262
 Alpha  occ. eigenvalues --   -0.53304  -0.52934  -0.52293  -0.52216  -0.51646
 Alpha  occ. eigenvalues --   -0.51234  -0.50518  -0.49961  -0.49341  -0.48698
 Alpha  occ. eigenvalues --   -0.48058  -0.47510  -0.46657  -0.45045  -0.42733
 Alpha  occ. eigenvalues --   -0.41909  -0.41696  -0.41215  -0.39132  -0.39028
 Alpha  occ. eigenvalues --   -0.38488  -0.37978  -0.35039
 Alpha virt. eigenvalues --    0.16963   0.18858   0.19477   0.20077   0.20460
 Alpha virt. eigenvalues --    0.21415   0.21769   0.22931   0.23550   0.23990
 Alpha virt. eigenvalues --    0.24827   0.25268   0.26098   0.26979   0.27324

 Mulliken atomic charges:
              1
     1  C   -0.278577
     2  N   -0.783405
     3  C    0.819002
     4  O   -0.623887
     5  C    0.094816
     6  C   -0.470685
     7  C   -0.328882
     8  C   -0.327872
     9  C   -0.350912
    10  C   -0.177615
    11  C   -0.173435
    12  C   -0.355769
    13  C   -0.310952
    14  C   -0.329371
    15  C    0.091181
    16  C   -0.509673
    17  N   -0.787544
    18  C    0.767183
    19  C   -0.595766
    20  O   -0.613761
    21  C    0.820305
    22  O   -0.639080
    23  N   -0.806247
    24  C   -0.275426
    25  N   -0.842771
    26  C    0.744729
    27  C   -0.588545
    28  O   -0.591622
    29  H    0.185451
    30  H    0.198295
    31  H    0.161313
    32  H    0.389938
    33  H    0.198993
    34  H    0.143146
    35  H    0.212088
    36  H    0.164783
    37  H    0.176384
    38  H    0.164989
    39  H    0.204826
    40  H    0.179863
    41  H    0.179483
    42  H    0.170807
    43  H    0.172280
    44  H    0.179241
    45  H    0.162486
    46  H    0.153015
    47  H    0.198502
    48  H    0.173926
    49  H    0.184252
    50  H    0.183995
    51  H    0.148125
    52  H    0.227097
    53  H    0.389882
    54  H    0.211553
    55  H    0.209699
    56  H    0.176611
    57  H    0.395560
    58  H    0.164780
    59  H    0.198615
    60  H    0.185781
    61  H    0.382290
    62  H    0.218560
    63  H    0.176920
    64  H    0.201051
 Sum of Mulliken atomic charges =   0.00000

 Dipole moment (field-independent basis, Debye):
    X=             -0.7632    Y=             -3.5134    Z=              7.0055  Tot=              7.8743
 Quadrupole moment (field-independent basis, Debye-Ang):
   XX=           -217.7924   YY=           -155.9623   ZZ=           -169.5746
   XY=              2.8329   XZ=            -27.5334   YZ=             10.4913

 Normal termination of Gaussian 09 at Thu Dec  5 17:38:34 2019.
