 Gaussian 09, Revision A.02,
 Gaussian 09:  EM64L-G09RevA.02 11-Jun-2009

 ---------------------------------
 #SP HF/6-31G* Geom=(ModRedundant)
 ---------------------------------

 ------------
 paramfit run
 ------------
 Symbolic Z-matrix:
 Charge =  0 Multiplicity = 1

                         Standard orientation:
 ---------------------------------------------------------------------
 Center     Atomic      Atomic             Coordinates (Angstroms)
 Number     Number       Type             X           Y           Z
 ---------------------------------------------------------------------
      1          6    20001001        2.702874    1.265866   -2.338514
      2          7    20001014        3.512321    0.371443   -1.537235
      3          6    20001002        3.431202    0.414888   -0.186813
      4          8    20001024        2.558021    1.003229    0.388649
      5          6    90000001        4.443779   -0.448318    0.587106
      6          6    90000002        4.540894    0.047556    2.033660
      7          6    90000002        4.028487   -1.943427    0.525594
      8          6    90000002        2.669401   -2.365893    1.112147
      9          6    90000002        1.599913   -1.271447    1.299289
     10          6    20001004        1.255538   -0.525278    0.031648
     11          6    20001004        0.225975   -0.734609   -0.772677
     12          6    90000002       -0.859934   -1.772923   -0.622819
     13          6    90000002       -2.193867   -1.222005   -0.087397
     14          6    90000002       -2.808273   -0.159422   -1.008448
     15          6    90000002       -4.235771    0.350381   -0.681348
     16          6    90000002       -4.586212    1.440767   -1.706873
     17          7    20001014       -5.167648   -0.760786   -0.817153
     18          6    20001002       -6.477199   -0.642137   -0.451018
     19          6    20001001       -7.214913   -1.951415   -0.288611
     20          8    20001024       -7.009447    0.417674   -0.270310
     21          6    20001002       -4.262596    0.827842    0.788358
     22          8    20001024       -4.425426    0.038032    1.679209
     23          7    20001014       -3.995692    2.130551    1.024352
     24          6    20001001       -4.054359    2.654622    2.373466
     25          7    20001014        5.761199   -0.400802   -0.063724
     26          6    20001002        6.474792    0.747060   -0.245018
     27          6    20001001        7.933361    0.547816   -0.601385
     28          8    20001024        5.984714    1.835881   -0.142882
     29          1    20001035        2.990621    2.301911   -2.201542
     30          1    20001035        1.663013    1.159620   -2.066257
     31          1    20001035        2.820953    0.998422   -3.381052
     32          1    20001029        4.378336    0.073006   -1.920954
     33          1    20001034        3.575368    0.037752    2.515944
     34          1    20001034        5.221358   -0.590724    2.589362
     35          1    20001034        4.909974    1.062462    2.059574
     36          1    20001034        4.796053   -2.483473    1.075514
     37          1    20001034        4.099929   -2.278388   -0.504443
     38          1    20001034        2.259829   -3.109100    0.434273
     39          1    20001034        2.815870   -2.871859    2.060787
     40          1    20001034        1.921922   -0.562415    2.050919
     41          1    20001034        0.715857   -1.753344    1.701852
     42          1    20001033        1.934845    0.269219   -0.231847
     43          1    20001033        0.137458   -0.095003   -1.636871
     44          1    20001034       -0.532043   -2.567332    0.036626
     45          1    20001034       -1.031845   -2.236364   -1.593522
     46          1    20001034       -2.871272   -2.061911    0.039305
     47          1    20001034       -2.039857   -0.811843    0.901986
     48          1    20001034       -2.841429   -0.540095   -2.027037
     49          1    20001034       -2.156222    0.706029   -1.021711
     50          1    20001034       -4.641701    0.987605   -2.689801
     51          1    20001034       -3.817959    2.206092   -1.744891
     52          1    20001034       -5.540499    1.898030   -1.492431
     53          1    20001029       -4.776135   -1.663374   -0.673059
     54          1    20001034       -8.275970   -1.771795   -0.372008
     55          1    20001034       -7.005202   -2.346171    0.700992
     56          1    20001034       -6.907226   -2.687275   -1.023608
     57          1    20001029       -4.106480    2.778111    0.280240
     58          1    20001035       -3.693222    3.674626    2.363890
     59          1    20001035       -3.424330    2.063831    3.022046
     60          1    20001035       -5.064979    2.637458    2.768571
     61          1    20001029        6.284543   -1.247500   -0.036151
     62          1    20001034        8.297732    1.438567   -1.092068
     63          1    20001034        8.085169   -0.311859   -1.244397
     64          1    20001034        8.504838    0.396159    0.308678
 ---------------------------------------------------------------------

 SCF Done:  E(RHF) =  -1295.41539642     A.U. after   15 cycles

 The electronic state is 1-A.
 Alpha  occ. eigenvalues --  -20.54404 -20.53900 -20.51273 -20.50634 -15.60478
 Alpha  occ. eigenvalues --  -15.59880 -15.56995 -15.56591 -11.36703 -11.36333
 Alpha  occ. eigenvalues --  -11.33478 -11.32718 -11.30187 -11.27460 -11.26108
 Alpha  occ. eigenvalues --  -11.24924 -11.24363 -11.24228 -11.22302 -11.21896
 Alpha  occ. eigenvalues --  -11.21876 -11.21674 -11.20881 -11.20400 -11.20080
 Alpha  occ. eigenvalues --  -11.19766 -11.17801 -11.13573  -1.46944  -1.41241
 Alpha  occ. eigenvalues --   -1.38509  -1.37215  -1.26828  -1.24287  -1.22599
 Alpha  occ. eigenvalues --   -1.21711  -1.10185  -1.08097  -1.05917  -1.03327
 Alpha  occ. eigenvalues --   -1.00858  -0.98680  -0.97912  -0.97099  -0.94503
 Alpha  occ. eigenvalues --   -0.93840  -0.91224  -0.87151  -0.85388  -0.83292
 Alpha  occ. eigenvalues --   -0.81230  -0.79912  -0.78599  -0.77916  -0.75959
 Alpha  occ. eigenvalues --   -0.75327  -0.72459  -0.70517  -0.69743  -0.67802
 Alpha  occ. eigenvalues --   -0.67405  -0.66617  -0.64574  -0.63770  -0.63546
 Alpha  occ. eigenvalues --   -0.63256  -0.62895  -0.61253  -0.60951  -0.60756
 Alpha  occ. eigenvalues --   -0.60480  -0.60071  -0.59986  -0.58654  -0.58305
 Alpha  occ. eigenvalues --   -0.57812  -0.57493  -0.56481  -0.56146  -0.55636
 Alpha  occ. eigenvalues --   -0.55179  -0.54936  -0.54229  -0.53993  -0.53789
 Alpha  occ. eigenvalues --   -0.53456  -0.52883  -0.52303  -0.51895  -0.51271
 Alpha  occ. eigenvalues --   -0.50395  -0.48994  -0.48720  -0.47729  -0.47301
 Alpha  occ. eigenvalues --   -0.46877  -0.46108  -0.45233  -0.43891  -0.43385
 Alpha  occ. eigenvalues --   -0.41326  -0.40660  -0.40551  -0.40256  -0.37937
 Alpha  occ. eigenvalues --   -0.37350  -0.32398  -0.29628
 Alpha virt. eigenvalues --    0.15009   0.18181   0.19227   0.20528   0.21755
 Alpha virt. eigenvalues --    0.22559   0.22983   0.23523   0.24135   0.24746
 Alpha virt. eigenvalues --    0.25336   0.26709   0.27162   0.27277   0.27844

 Mulliken atomic charges:
              1
     1  C   -0.297076
     2  N   -0.751558
     3  C    0.766238
     4  O   -0.603806
     5  C    0.103832
     6  C   -0.472284
     7  C   -0.332960
     8  C   -0.305832
     9  C   -0.378897
    10  C   -0.165320
    11  C   -0.249161
    12  C   -0.342297
    13  C   -0.304773
    14  C   -0.325895
    15  C    0.090428
    16  C   -0.509296
    17  N   -0.787858
    18  C    0.767432
    19  C   -0.595182
    20  O   -0.615851
    21  C    0.822144
    22  O   -0.641291
    23  N   -0.804507
    24  C   -0.274039
    25  N   -0.843625
    26  C    0.743541
    27  C   -0.589111
    28  O   -0.591232
    29  H    0.193548
    30  H    0.217507
    31  H    0.176100
    32  H    0.404733
    33  H    0.197629
    34  H    0.152326
    35  H    0.213502
    36  H    0.164670
    37  H    0.183385
    38  H    0.173840
    39  H    0.162973
    40  H    0.186635
    41  H    0.171028
    42  H    0.301049
    43  H    0.133228
    44  H    0.160606
    45  H    0.142688
    46  H    0.138684
    47  H    0.193021
    48  H    0.169047
    49  H    0.186884
    50  H    0.181496
    51  H    0.148426
    52  H    0.223265
    53  H    0.390696
    54  H    0.208712
    55  H    0.208471
    56  H    0.175754
    57  H    0.394523
    58  H    0.163953
    59  H    0.198974
    60  H    0.181829
    61  H    0.386587
    62  H    0.220223
    63  H    0.178755
    64  H    0.203488
 Sum of Mulliken atomic charges =   0.00000

 Dipole moment (field-independent basis, Debye):
    X=              8.5155    Y=             -3.3252    Z=             -3.4498  Tot=              9.7710
 Quadrupole moment (field-independent basis, Debye-Ang):
   XX=           -158.1204   YY=           -165.2347   ZZ=           -167.3738
   XY=            -13.9652   XZ=              1.3655   YZ=             -0.7185

 Normal termination of Gaussian 09 at Thu Dec  5 17:55:35 2019.
