 Gaussian 09, Revision A.02,
 Gaussian 09:  EM64L-G09RevA.02 11-Jun-2009

 ---------------------------------
 #SP HF/6-31G* Geom=(ModRedundant)
 ---------------------------------

 ------------
 paramfit run
 ------------
 Symbolic Z-matrix:
 Charge =  0 Multiplicity = 1

                         Standard orientation:
 ---------------------------------------------------------------------
 Center     Atomic      Atomic             Coordinates (Angstroms)
 Number     Number       Type             X           Y           Z
 ---------------------------------------------------------------------
      1          6    20001001       -4.021531    2.988364    0.413833
      2          7    20001014       -4.273996    1.563995    0.482240
      3          6    20001002       -4.458441    0.855704   -0.656361
      4          8    20001024       -4.204209    1.300466   -1.741395
      5          6    90000001       -4.885953   -0.613191   -0.486168
      6          6    90000002       -5.492396   -1.126197   -1.796471
      7          6    90000002       -3.671748   -1.475503   -0.046025
      8          6    90000002       -2.442423   -1.560607   -0.968605
      9          6    90000002       -1.327015   -0.514710   -0.772134
     10          6    20001004       -0.755872   -0.480329    0.626041
     11          6    20001004        0.354616   -1.055886    1.057672
     12          6    90000002        1.326135   -1.891205    0.258831
     13          6    90000002        2.613006   -1.150879   -0.147921
     14          6    90000002        3.427968   -0.671707    1.060857
     15          6    90000002        4.832528   -0.068806    0.799385
     16          6    90000002        5.403234    0.384104    2.153126
     17          7    20001014        5.685323   -1.106634    0.236195
     18          6    20001002        6.937767   -0.826286   -0.228397
     19          6    20001001        7.542709   -1.891789   -1.113582
     20          8    20001024        7.520801    0.186846    0.041375
     21          6    20001002        4.695143    1.063628   -0.243421
     22          8    20001024        4.673023    0.807136   -1.417155
     23          7    20001014        4.500208    2.316774    0.220915
     24          6    20001001        4.414363    3.431188   -0.700449
     25          7    20001014       -5.852313   -0.741763    0.614309
     26          6    20001002       -7.060206   -0.109247    0.638570
     27          6    20001001       -8.043108   -0.639413    1.661775
     28          8    20001024       -7.324541    0.807547   -0.086519
     29          1    20001035       -4.878508    3.531973    0.033008
     30          1    20001035       -3.178618    3.178902   -0.234176
     31          1    20001035       -3.786413    3.345895    1.408441
     32          1    20001029       -4.723775    1.219201    1.297778
     33          1    20001034       -4.799665   -1.017157   -2.616939
     34          1    20001034       -5.751557   -2.175173   -1.688201
     35          1    20001034       -6.383230   -0.567161   -2.043088
     36          1    20001034       -4.056566   -2.486478    0.068277
     37          1    20001034       -3.362182   -1.154334    0.943571
     38          1    20001034       -2.002864   -2.540258   -0.805236
     39          1    20001034       -2.755915   -1.540664   -2.007209
     40          1    20001034       -1.692828    0.470887   -1.029316
     41          1    20001034       -0.546281   -0.740738   -1.489909
     42          1    20001033       -1.329193    0.086221    1.341889
     43          1    20001033        0.609685   -0.917918    2.096741
     44          1    20001034        0.850655   -2.263785   -0.640375
     45          1    20001034        1.592676   -2.768730    0.846623
     46          1    20001034        3.199624   -1.823679   -0.767269
     47          1    20001034        2.357462   -0.310823   -0.780246
     48          1    20001034        3.570432   -1.500080    1.751534
     49          1    20001034        2.852863    0.078595    1.590623
     50          1    20001034        5.557266   -0.490258    2.774695
     51          1    20001034        4.708997    1.035028    2.674389
     52          1    20001034        6.351785    0.886819    2.037941
     53          1    20001029        5.209063   -1.824489   -0.260366
     54          1    20001034        8.615904   -1.776705   -1.121990
     55          1    20001034        7.169778   -1.754690   -2.124152
     56          1    20001034        7.282292   -2.891998   -0.784725
     57          1    20001029        4.761476    2.520115    1.156704
     58          1    20001035        4.138027    4.317958   -0.145291
     59          1    20001035        3.657753    3.231537   -1.444967
     60          1    20001035        5.357107    3.607346   -1.208343
     61          1    20001029       -5.777434   -1.573594    1.156526
     62          1    20001034       -8.772121    0.128408    1.876170
     63          1    20001034       -7.554606   -0.946280    2.579788
     64          1    20001034       -8.558886   -1.499829    1.247700
 ---------------------------------------------------------------------

 SCF Done:  E(RHF) =  -1295.62164395     A.U. after   14 cycles

 The electronic state is 1-A.
 Alpha  occ. eigenvalues --  -20.53619 -20.52078 -20.51783 -20.51628 -15.59577
 Alpha  occ. eigenvalues --  -15.57935 -15.57559 -15.57422 -11.35941 -11.34286
 Alpha  occ. eigenvalues --  -11.33770 -11.33715 -11.28994 -11.28611 -11.25013
 Alpha  occ. eigenvalues --  -11.24833 -11.24341 -11.23973 -11.23458 -11.22680
 Alpha  occ. eigenvalues --  -11.22654 -11.22541 -11.22428 -11.22396 -11.22205
 Alpha  occ. eigenvalues --  -11.21845 -11.21845 -11.20825  -1.40552  -1.39400
 Alpha  occ. eigenvalues --   -1.38600  -1.38124  -1.25393  -1.23586  -1.22647
 Alpha  occ. eigenvalues --   -1.21987  -1.10855  -1.09285  -1.07252  -1.04282
 Alpha  occ. eigenvalues --   -1.01267  -0.99336  -0.98766  -0.95449  -0.95174
 Alpha  occ. eigenvalues --   -0.94616  -0.92252  -0.87271  -0.85742  -0.82878
 Alpha  occ. eigenvalues --   -0.81378  -0.79530  -0.78797  -0.77091  -0.76911
 Alpha  occ. eigenvalues --   -0.71987  -0.71318  -0.71101  -0.68963  -0.68028
 Alpha  occ. eigenvalues --   -0.66768  -0.65790  -0.64547  -0.63967  -0.63748
 Alpha  occ. eigenvalues --   -0.62576  -0.62302  -0.61851  -0.61459  -0.61163
 Alpha  occ. eigenvalues --   -0.60874  -0.59949  -0.59369  -0.58759  -0.58464
 Alpha  occ. eigenvalues --   -0.58172  -0.57867  -0.56629  -0.56433  -0.56243
 Alpha  occ. eigenvalues --   -0.55497  -0.54891  -0.54785  -0.54502  -0.54052
 Alpha  occ. eigenvalues --   -0.53135  -0.52726  -0.52486  -0.52163  -0.51555
 Alpha  occ. eigenvalues --   -0.51020  -0.50335  -0.49804  -0.49299  -0.48557
 Alpha  occ. eigenvalues --   -0.48351  -0.47110  -0.46463  -0.44655  -0.42826
 Alpha  occ. eigenvalues --   -0.41925  -0.41541  -0.41095  -0.39234  -0.38873
 Alpha  occ. eigenvalues --   -0.38319  -0.38231  -0.34673
 Alpha virt. eigenvalues --    0.17199   0.18827   0.19619   0.20053   0.20346
 Alpha virt. eigenvalues --    0.21557   0.21921   0.23084   0.23316   0.23884
 Alpha virt. eigenvalues --    0.25119   0.25579   0.26471   0.27041   0.27567

 Mulliken atomic charges:
              1
     1  C   -0.279105
     2  N   -0.784653
     3  C    0.821944
     4  O   -0.627692
     5  C    0.100726
     6  C   -0.472717
     7  C   -0.333087
     8  C   -0.316129
     9  C   -0.363319
    10  C   -0.178176
    11  C   -0.176030
    12  C   -0.354133
    13  C   -0.310695
    14  C   -0.329186
    15  C    0.091085
    16  C   -0.509616
    17  N   -0.787606
    18  C    0.767286
    19  C   -0.595714
    20  O   -0.613808
    21  C    0.820526
    22  O   -0.639237
    23  N   -0.806019
    24  C   -0.275597
    25  N   -0.842832
    26  C    0.744562
    27  C   -0.588654
    28  O   -0.591686
    29  H    0.186584
    30  H    0.197916
    31  H    0.161816
    32  H    0.390650
    33  H    0.198990
    34  H    0.143838
    35  H    0.212593
    36  H    0.161794
    37  H    0.181963
    38  H    0.164308
    39  H    0.184636
    40  H    0.204006
    41  H    0.175973
    42  H    0.176664
    43  H    0.170507
    44  H    0.177337
    45  H    0.160788
    46  H    0.151556
    47  H    0.199506
    48  H    0.173260
    49  H    0.184929
    50  H    0.183567
    51  H    0.148335
    52  H    0.226767
    53  H    0.389766
    54  H    0.211272
    55  H    0.209568
    56  H    0.176294
    57  H    0.395333
    58  H    0.164858
    59  H    0.199660
    60  H    0.185161
    61  H    0.382437
    62  H    0.218576
    63  H    0.177080
    64  H    0.201273
 Sum of Mulliken atomic charges =   0.00000

 Dipole moment (field-independent basis, Debye):
    X=             -2.3233    Y=             -4.4386    Z=              6.5733  Tot=              8.2648
 Quadrupole moment (field-independent basis, Debye-Ang):
   XX=           -199.0953   YY=           -155.3459   ZZ=           -173.1503
   XY=             13.0361   XZ=            -19.8004   YZ=             10.3726

 Normal termination of Gaussian 09 at Thu Dec  5 17:18:08 2019.
