 Gaussian 09, Revision A.02,
 Gaussian 09:  EM64L-G09RevA.02 11-Jun-2009

 ---------------------------------
 #SP HF/6-31G* Geom=(ModRedundant)
 ---------------------------------

 ------------
 paramfit run
 ------------
 Symbolic Z-matrix:
 Charge =  0 Multiplicity = 1

                         Standard orientation:
 ---------------------------------------------------------------------
 Center     Atomic      Atomic             Coordinates (Angstroms)
 Number     Number       Type             X           Y           Z
 ---------------------------------------------------------------------
      1          6    20001001       -6.996697    2.338800    1.637857
      2          7    20001014       -6.188827    1.200096    1.253223
      3          6    20001002       -5.404572    1.269921    0.152233
      4          8    20001024       -5.167081    2.304977   -0.406340
      5          6    90000001       -4.711362   -0.035566   -0.277360
      6          6    90000002       -4.264700    0.077502   -1.738712
      7          6    90000002       -3.511973   -0.337705    0.661671
      8          6    90000002       -2.356007    0.675308    0.746429
      9          6    90000002       -1.001893    0.171869    1.284535
     10          6    20001004       -0.431738   -0.997654    0.516801
     11          6    20001004        0.489687   -0.966826   -0.432296
     12          6    90000002        1.199178    0.246402   -0.984068
     13          6    90000002        2.633183    0.435880   -0.457484
     14          6    90000002        3.554904   -0.738267   -0.813468
     15          6    90000002        5.067045   -0.598084   -0.499739
     16          6    90000002        5.747361   -1.920042   -0.890952
     17          7    20001014        5.610139    0.484838   -1.308356
     18          6    20001002        6.888627    0.931024   -1.136773
     19          6    20001001        7.183021    2.276912   -1.758642
     20          8    20001024        7.721276    0.307598   -0.539129
     21          6    20001002        5.226962   -0.217326    0.989614
     22          8    20001024        5.128984    0.929165    1.335863
     23          7    20001014        5.374518   -1.224676    1.877001
     24          6    20001001        5.580254   -0.935636    3.281398
     25          7    20001014       -5.618387   -1.179317   -0.102519
     26          6    20001002       -6.820196   -1.295934   -0.736338
     27          6    20001001       -7.430833   -2.681707   -0.706761
     28          8    20001024       -7.362958   -0.369490   -1.268551
     29          1    20001035       -7.772952    2.546651    0.910413
     30          1    20001035       -6.371533    3.214564    1.732355
     31          1    20001035       -7.454099    2.129985    2.596780
     32          1    20001029       -6.521426    0.298944    1.505389
     33          1    20001034       -3.614932    0.926936   -1.884297
     34          1    20001034       -3.736133   -0.826613   -2.025820
     35          1    20001034       -5.120785    0.205055   -2.385068
     36          1    20001034       -3.090364   -1.275195    0.305892
     37          1    20001034       -3.895866   -0.535529    1.657548
     38          1    20001034       -2.190576    1.037999   -0.263870
     39          1    20001034       -2.660676    1.537932    1.329894
     40          1    20001034       -1.095334   -0.101282    2.327618
     41          1    20001034       -0.314298    1.009834    1.255165
     42          1    20001033       -0.829115   -1.962217    0.788508
     43          1    20001033        0.779873   -1.909830   -0.868526
     44          1    20001034        0.635329    1.144542   -0.762971
     45          1    20001034        1.227983    0.166254   -2.070043
     46          1    20001034        3.015941    1.365951   -0.868385
     47          1    20001034        2.604725    0.573784    0.615364
     48          1    20001034        3.477859   -0.947802   -1.878218
     49          1    20001034        3.203124   -1.623492   -0.296769
     50          1    20001034        5.668771   -2.046240   -1.964487
     51          1    20001034        5.254313   -2.768112   -0.427203
     52          1    20001034        6.794341   -1.923068   -0.627204
     53          1    20001029        4.957016    1.186759   -1.571888
     54          1    20001034        8.248251    2.373817   -1.903397
     55          1    20001034        6.852292    3.053419   -1.075428
     56          1    20001034        6.669297    2.410772   -2.704449
     57          1    20001029        5.687244   -2.105946    1.544018
     58          1    20001035        5.552905   -1.866037    3.833236
     59          1    20001035        4.792304   -0.289855    3.640186
     60          1    20001035        6.532192   -0.444735    3.456277
     61          1    20001029       -5.187479   -2.028462    0.188720
     62          1    20001034       -8.495889   -2.597429   -0.866529
     63          1    20001034       -7.241055   -3.194088    0.229722
     64          1    20001034       -7.006632   -3.275052   -1.510377
 ---------------------------------------------------------------------

 SCF Done:  E(RHF) =  -1295.62191292     A.U. after   14 cycles

 The electronic state is 1-A.
 Alpha  occ. eigenvalues --  -20.53525 -20.52193 -20.51859 -20.51468 -15.59501
 Alpha  occ. eigenvalues --  -15.58184 -15.57690 -15.57061 -11.35865 -11.34395
 Alpha  occ. eigenvalues --  -11.33939 -11.33481 -11.28994 -11.28796 -11.25311
 Alpha  occ. eigenvalues --  -11.24545 -11.24286 -11.23913 -11.23673 -11.22999
 Alpha  occ. eigenvalues --  -11.22929 -11.22890 -11.22800 -11.22678 -11.22615
 Alpha  occ. eigenvalues --  -11.22604 -11.22003 -11.20683  -1.40449  -1.39571
 Alpha  occ. eigenvalues --   -1.38300  -1.38264  -1.25282  -1.23731  -1.22893
 Alpha  occ. eigenvalues --   -1.21672  -1.11217  -1.09382  -1.07461  -1.04526
 Alpha  occ. eigenvalues --   -1.01381  -0.99408  -0.98870  -0.95381  -0.95172
 Alpha  occ. eigenvalues --   -0.94802  -0.92463  -0.87187  -0.85793  -0.83136
 Alpha  occ. eigenvalues --   -0.81629  -0.79704  -0.78894  -0.77112  -0.76789
 Alpha  occ. eigenvalues --   -0.72382  -0.71510  -0.70931  -0.69163  -0.68201
 Alpha  occ. eigenvalues --   -0.66981  -0.65584  -0.64648  -0.63993  -0.63623
 Alpha  occ. eigenvalues --   -0.63161  -0.62301  -0.62125  -0.61611  -0.61370
 Alpha  occ. eigenvalues --   -0.60877  -0.59772  -0.59484  -0.58958  -0.58808
 Alpha  occ. eigenvalues --   -0.57856  -0.57594  -0.56963  -0.56593  -0.56137
 Alpha  occ. eigenvalues --   -0.55255  -0.55200  -0.54957  -0.54247  -0.53692
 Alpha  occ. eigenvalues --   -0.53267  -0.53034  -0.52490  -0.51947  -0.51861
 Alpha  occ. eigenvalues --   -0.51335  -0.50728  -0.49990  -0.49223  -0.48792
 Alpha  occ. eigenvalues --   -0.48698  -0.46946  -0.46685  -0.45167  -0.42682
 Alpha  occ. eigenvalues --   -0.41897  -0.41730  -0.41218  -0.39067  -0.39043
 Alpha  occ. eigenvalues --   -0.38540  -0.37890  -0.35215
 Alpha virt. eigenvalues --    0.16573   0.18939   0.19454   0.20292   0.21034
 Alpha virt. eigenvalues --    0.21408   0.21833   0.22942   0.23542   0.24112
 Alpha virt. eigenvalues --    0.24797   0.25702   0.26438   0.26736   0.27325

 Mulliken atomic charges:
              1
     1  C   -0.278209
     2  N   -0.782675
     3  C    0.816705
     4  O   -0.623770
     5  C    0.100253
     6  C   -0.473641
     7  C   -0.328851
     8  C   -0.313734
     9  C   -0.351175
    10  C   -0.177374
    11  C   -0.170514
    12  C   -0.357679
    13  C   -0.311460
    14  C   -0.329532
    15  C    0.091203
    16  C   -0.509744
    17  N   -0.787405
    18  C    0.767065
    19  C   -0.595803
    20  O   -0.614003
    21  C    0.820197
    22  O   -0.639222
    23  N   -0.806384
    24  C   -0.275149
    25  N   -0.842618
    26  C    0.744904
    27  C   -0.588614
    28  O   -0.591428
    29  H    0.184780
    30  H    0.198094
    31  H    0.161257
    32  H    0.389568
    33  H    0.199610
    34  H    0.145722
    35  H    0.211941
    36  H    0.161071
    37  H    0.174348
    38  H    0.178024
    39  H    0.182047
    40  H    0.168282
    41  H    0.183460
    42  H    0.169078
    43  H    0.173549
    44  H    0.181862
    45  H    0.165642
    46  H    0.154463
    47  H    0.196859
    48  H    0.175036
    49  H    0.183426
    50  H    0.184615
    51  H    0.147811
    52  H    0.227108
    53  H    0.390240
    54  H    0.211545
    55  H    0.209551
    56  H    0.177335
    57  H    0.395726
    58  H    0.164597
    59  H    0.197637
    60  H    0.186032
    61  H    0.382024
    62  H    0.218600
    63  H    0.176961
    64  H    0.200757
 Sum of Mulliken atomic charges =   0.00000

 Dipole moment (field-independent basis, Debye):
    X=             -1.3147    Y=             -6.7194    Z=              1.7431  Tot=              7.0652
 Quadrupole moment (field-independent basis, Debye-Ang):
   XX=           -210.8122   YY=           -163.0004   ZZ=           -165.6661
   XY=             21.5078   XZ=            -27.4972   YZ=             -4.0535

 Normal termination of Gaussian 09 at Thu Dec  5 16:09:26 2019.
