 Gaussian 09, Revision A.02,
 Gaussian 09:  EM64L-G09RevA.02 11-Jun-2009

 ---------------------------------
 #SP HF/6-31G* Geom=(ModRedundant)
 ---------------------------------

 ------------
 paramfit run
 ------------
 Symbolic Z-matrix:
 Charge =  0 Multiplicity = 1

                         Standard orientation:
 ---------------------------------------------------------------------
 Center     Atomic      Atomic             Coordinates (Angstroms)
 Number     Number       Type             X           Y           Z
 ---------------------------------------------------------------------
      1          6    20001001        6.762757    2.836020    0.943315
      2          7    20001014        6.026132    1.782162    0.276971
      3          6    20001002        5.446675    0.799219    1.005093
      4          8    20001024        5.317937    0.868646    2.196039
      5          6    90000001        4.829575   -0.366420    0.211455
      6          6    90000002        4.645748   -1.575342    1.134795
      7          6    90000002        3.482483    0.073568   -0.423649
      8          6    90000002        2.336922    0.531537    0.496997
      9          6    90000002        1.013831    0.961363   -0.167320
     10          6    20001004        0.396613   -0.097949   -1.050030
     11          6    20001004       -0.577259   -0.938408   -0.740253
     12          6    90000002       -1.312601   -1.047380    0.573957
     13          6    90000002       -2.713584   -0.409568    0.570945
     14          6    90000002       -3.658358   -1.060012   -0.448486
     15          6    90000002       -5.149653   -0.635197   -0.433650
     16          6    90000002       -5.855961   -1.378186   -1.579314
     17          7    20001014       -5.733974   -1.037524    0.838448
     18          6    20001002       -6.998980   -0.665832    1.191526
     19          6    20001001       -7.323411   -0.823229    2.659441
     20          8    20001024       -7.798500   -0.245465    0.402096
     21          6    20001002       -5.223086    0.905311   -0.534473
     22          8    20001024       -5.101368    1.583496    0.449995
     23          7    20001014       -5.323527    1.443992   -1.768863
     24          6    20001001       -5.447877    2.877994   -1.931271
     25          7    20001014        5.683746   -0.716738   -0.932704
     26          6    20001002        6.976868   -1.132713   -0.812409
     27          6    20001001        7.562800   -1.777232   -2.051520
     28          8    20001024        7.610980   -0.989652    0.194356
     29          1    20001035        7.655594    2.459106    1.428833
     30          1    20001035        6.137124    3.302752    1.689953
     31          1    20001035        7.044175    3.579266    0.207963
     32          1    20001029        6.302991    1.546245   -0.647137
     33          1    20001034        4.037614   -1.324769    1.990551
     34          1    20001034        4.168820   -2.380913    0.584493
     35          1    20001034        5.602442   -1.917714    1.501463
     36          1    20001034        3.122613   -0.791697   -0.975944
     37          1    20001034        3.685153    0.842864   -1.162153
     38          1    20001034        2.115534   -0.306083    1.151976
     39          1    20001034        2.677472    1.335599    1.141112
     40          1    20001034        1.165539    1.861802   -0.748317
     41          1    20001034        0.328738    1.230908    0.628812
     42          1    20001033        0.805305   -0.160596   -2.045600
     43          1    20001033       -0.895256   -1.628387   -1.506129
     44          1    20001034       -0.733805   -0.590637    1.367586
     45          1    20001034       -1.403510   -2.101480    0.833194
     46          1    20001034       -3.115734   -0.490538    1.576973
     47          1    20001034       -2.623558    0.649969    0.370680
     48          1    20001034       -3.642851   -2.139870   -0.317344
     49          1    20001034       -3.280945   -0.863015   -1.445031
     50          1    20001034       -5.839109   -2.440672   -1.366188
     51          1    20001034       -5.340391   -1.227762   -2.522151
     52          1    20001034       -6.886222   -1.070870   -1.678599
     53          1    20001029       -5.094369   -1.106503    1.596643
     54          1    20001034       -8.394797   -0.871745    2.781255
     55          1    20001034       -6.951476    0.047421    3.191191
     56          1    20001034       -6.863910   -1.708018    3.086512
     57          1    20001029       -5.657921    0.872378   -2.508287
     58          1    20001035       -5.392530    3.112299   -2.986240
     59          1    20001035       -4.638421    3.374930   -1.417012
     60          1    20001035       -6.386514    3.248602   -1.532067
     61          1    20001029        5.202405   -1.000736   -1.756842
     62          1    20001034        8.639980   -1.711558   -2.003115
     63          1    20001034        7.208692   -1.310263   -2.963714
     64          1    20001034        7.281084   -2.825031   -2.075069
 ---------------------------------------------------------------------

 SCF Done:  E(RHF) =  -1295.62353874     A.U. after   14 cycles

 The electronic state is 1-A.
 Alpha  occ. eigenvalues --  -20.53540 -20.52218 -20.51871 -20.51512 -15.59515
 Alpha  occ. eigenvalues --  -15.58193 -15.57718 -15.57099 -11.35879 -11.34420
 Alpha  occ. eigenvalues --  -11.33953 -11.33525 -11.29027 -11.28819 -11.25310
 Alpha  occ. eigenvalues --  -11.24572 -11.24294 -11.23953 -11.23701 -11.22999
 Alpha  occ. eigenvalues --  -11.22941 -11.22913 -11.22801 -11.22707 -11.22639
 Alpha  occ. eigenvalues --  -11.22632 -11.22027 -11.20722  -1.40466  -1.39590
 Alpha  occ. eigenvalues --   -1.38319  -1.38316  -1.25304  -1.23756  -1.22903
 Alpha  occ. eigenvalues --   -1.21708  -1.11218  -1.09392  -1.07490  -1.04552
 Alpha  occ. eigenvalues --   -1.01398  -0.99428  -0.98893  -0.95389  -0.95203
 Alpha  occ. eigenvalues --   -0.94818  -0.92471  -0.87210  -0.85824  -0.83136
 Alpha  occ. eigenvalues --   -0.81640  -0.79723  -0.78914  -0.77128  -0.76825
 Alpha  occ. eigenvalues --   -0.72383  -0.71526  -0.70974  -0.69194  -0.68208
 Alpha  occ. eigenvalues --   -0.67030  -0.65479  -0.64673  -0.63994  -0.63741
 Alpha  occ. eigenvalues --   -0.63116  -0.62300  -0.62174  -0.61633  -0.61380
 Alpha  occ. eigenvalues --   -0.60825  -0.59963  -0.59475  -0.58969  -0.58810
 Alpha  occ. eigenvalues --   -0.57813  -0.57724  -0.56886  -0.56600  -0.56172
 Alpha  occ. eigenvalues --   -0.55266  -0.55135  -0.54943  -0.54247  -0.53705
 Alpha  occ. eigenvalues --   -0.53293  -0.53223  -0.52438  -0.51957  -0.51824
 Alpha  occ. eigenvalues --   -0.51459  -0.50798  -0.50013  -0.49305  -0.48755
 Alpha  occ. eigenvalues --   -0.48552  -0.47168  -0.46723  -0.45208  -0.42705
 Alpha  occ. eigenvalues --   -0.41924  -0.41749  -0.41242  -0.39084  -0.39076
 Alpha  occ. eigenvalues --   -0.38554  -0.37915  -0.35200
 Alpha virt. eigenvalues --    0.16675   0.18920   0.19435   0.20244   0.20990
 Alpha virt. eigenvalues --    0.21384   0.21813   0.22973   0.23587   0.24243
 Alpha virt. eigenvalues --    0.24785   0.25447   0.26178   0.26802   0.27410

 Mulliken atomic charges:
              1
     1  C   -0.278233
     2  N   -0.782172
     3  C    0.816440
     4  O   -0.624255
     5  C    0.103366
     6  C   -0.474221
     7  C   -0.331161
     8  C   -0.312497
     9  C   -0.352188
    10  C   -0.175957
    11  C   -0.172319
    12  C   -0.357122
    13  C   -0.311250
    14  C   -0.329477
    15  C    0.091217
    16  C   -0.509723
    17  N   -0.787457
    18  C    0.767087
    19  C   -0.595794
    20  O   -0.613897
    21  C    0.820208
    22  O   -0.639149
    23  N   -0.806368
    24  C   -0.275230
    25  N   -0.843345
    26  C    0.744932
    27  C   -0.588560
    28  O   -0.591483
    29  H    0.184990
    30  H    0.198019
    31  H    0.161395
    32  H    0.389766
    33  H    0.200277
    34  H    0.144364
    35  H    0.211907
    36  H    0.162775
    37  H    0.171370
    38  H    0.169477
    39  H    0.191149
    40  H    0.170463
    41  H    0.183407
    42  H    0.169928
    43  H    0.173187
    44  H    0.181117
    45  H    0.164502
    46  H    0.154142
    47  H    0.197266
    48  H    0.174656
    49  H    0.183663
    50  H    0.184424
    51  H    0.147892
    52  H    0.227172
    53  H    0.390118
    54  H    0.211606
    55  H    0.209643
    56  H    0.177100
    57  H    0.395700
    58  H    0.164672
    59  H    0.197836
    60  H    0.186038
    61  H    0.382124
    62  H    0.218624
    63  H    0.176932
    64  H    0.200907
 Sum of Mulliken atomic charges =   0.00000

 Dipole moment (field-independent basis, Debye):
    X=              0.7489    Y=             -2.2318    Z=             -6.8787  Tot=              7.2703
 Quadrupole moment (field-independent basis, Debye-Ang):
   XX=           -217.8148   YY=           -164.8301   ZZ=           -162.2661
   XY=             10.2421   XZ=            -31.9048   YZ=             -5.0056

 Normal termination of Gaussian 09 at Thu Dec  5 15:59:20 2019.
