 Gaussian 09, Revision A.02,
 Gaussian 09:  EM64L-G09RevA.02 11-Jun-2009

 ---------------------------------
 #SP HF/6-31G* Geom=(ModRedundant)
 ---------------------------------

 ------------
 paramfit run
 ------------
 Symbolic Z-matrix:
 Charge =  0 Multiplicity = 1

                         Standard orientation:
 ---------------------------------------------------------------------
 Center     Atomic      Atomic             Coordinates (Angstroms)
 Number     Number       Type             X           Y           Z
 ---------------------------------------------------------------------
      1          6    20001001       -6.069505    2.981358    0.693745
      2          7    20001014       -5.663385    1.593327    0.769125
      3          6    20001002       -4.507800    1.195572    0.187299
      4          8    20001024       -3.680596    1.972566   -0.202264
      5          6    90000001       -4.236968   -0.319602    0.170393
      6          6    90000002       -3.179434   -0.639993   -0.891122
      7          6    90000002       -3.791590   -0.798528    1.578892
      8          6    90000002       -2.511727   -0.208684    2.198304
      9          6    90000002       -1.180462   -0.932223    1.913947
     10          6    20001004       -0.862741   -1.079939    0.444420
     11          6    20001004       -0.064469   -0.320420   -0.288142
     12          6    90000002        0.726376    0.883765    0.163808
     13          6    90000002        2.225154    0.611018    0.384799
     14          6    90000002        2.937242    0.145980   -0.892536
     15          6    90000002        4.481229    0.006651   -0.855933
     16          6    90000002        4.932258   -0.527467   -2.225146
     17          7    20001014        5.060801    1.324434   -0.634409
     18          6    20001002        6.397762    1.487491   -0.413038
     19          6    20001001        6.788958    2.826540    0.168959
     20          8    20001024        7.207172    0.637058   -0.659532
     21          6    20001002        4.865143   -0.897837    0.337062
     22          8    20001024        4.959141   -0.435653    1.442268
     23          7    20001014        4.984605   -2.222157    0.100664
     24          6    20001001        5.391583   -3.119137    1.162737
     25          7    20001014       -5.478531   -1.059440   -0.099033
     26          6    20001002       -6.217655   -0.909220   -1.235168
     27          6    20001001       -7.243056   -1.995971   -1.483449
     28          8    20001024       -6.077850    0.019728   -1.979244
     29          1    20001035       -6.299794    3.279518   -0.322630
     30          1    20001035       -5.277169    3.614172    1.065865
     31          1    20001035       -6.947257    3.118788    1.312629
     32          1    20001029       -6.381585    0.911356    0.842540
     33          1    20001034       -2.269761   -0.086016   -0.716372
     34          1    20001034       -2.957035   -1.702696   -0.870166
     35          1    20001034       -3.540733   -0.375295   -1.874139
     36          1    20001034       -3.638050   -1.871587    1.488397
     37          1    20001034       -4.621892   -0.667057    2.265620
     38          1    20001034       -2.421659    0.802683    1.812760
     39          1    20001034       -2.629975   -0.111969    3.272565
     40          1    20001034       -1.184111   -1.911220    2.375377
     41          1    20001034       -0.397990   -0.369965    2.411378
     42          1    20001033       -1.347242   -1.907104   -0.048706
     43          1    20001033        0.046544   -0.581966   -1.328830
     44          1    20001034        0.314587    1.280209    1.083986
     45          1    20001034        0.615294    1.670304   -0.581585
     46          1    20001034        2.674238    1.523414    0.767202
     47          1    20001034        2.342539   -0.128623    1.165813
     48          1    20001034        2.707638    0.832837   -1.704350
     49          1    20001034        2.537060   -0.819162   -1.180121
     50          1    20001034        4.710944    0.219216   -2.978847
     51          1    20001034        4.391569   -1.429367   -2.492749
     52          1    20001034        5.993780   -0.723537   -2.246760
     53          1    20001029        4.478016    1.968818   -0.150836
     54          1    20001034        7.832935    3.009228   -0.035488
     55          1    20001034        6.645692    2.791283    1.244765
     56          1    20001034        6.188364    3.636498   -0.230584
     57          1    20001029        5.138108   -2.523804   -0.832479
     58          1    20001035        5.309041   -4.137283    0.805684
     59          1    20001035        4.742692   -2.991515    2.016716
     60          1    20001035        6.413321   -2.933023    1.477642
     61          1    20001029       -5.573191   -1.927894    0.378853
     62          1    20001034       -8.007626   -1.610693   -2.142210
     63          1    20001034       -7.696694   -2.350089   -0.564557
     64          1    20001034       -6.759740   -2.837311   -1.969613
 ---------------------------------------------------------------------

 SCF Done:  E(RHF) =  -1295.59162085     A.U. after   14 cycles

 The electronic state is 1-A.
 Alpha  occ. eigenvalues --  -20.53399 -20.51853 -20.51584 -20.51503 -15.59336
 Alpha  occ. eigenvalues --  -15.57854 -15.57292 -15.57120 -11.35735 -11.34054
 Alpha  occ. eigenvalues --  -11.33575 -11.33530 -11.28743 -11.28344 -11.25057
 Alpha  occ. eigenvalues --  -11.24613 -11.24211 -11.24030 -11.23081 -11.22703
 Alpha  occ. eigenvalues --  -11.22647 -11.22312 -11.22097 -11.22024 -11.21965
 Alpha  occ. eigenvalues --  -11.21622 -11.21578 -11.19391  -1.40326  -1.39221
 Alpha  occ. eigenvalues --   -1.38369  -1.37955  -1.25159  -1.23330  -1.22564
 Alpha  occ. eigenvalues --   -1.21714  -1.11079  -1.09066  -1.06861  -1.04052
 Alpha  occ. eigenvalues --   -1.01290  -0.99404  -0.98644  -0.95338  -0.95069
 Alpha  occ. eigenvalues --   -0.94541  -0.91615  -0.86839  -0.85718  -0.83063
 Alpha  occ. eigenvalues --   -0.81168  -0.79337  -0.78674  -0.76848  -0.76753
 Alpha  occ. eigenvalues --   -0.72092  -0.71189  -0.70728  -0.68850  -0.67871
 Alpha  occ. eigenvalues --   -0.66604  -0.65734  -0.64322  -0.63760  -0.63645
 Alpha  occ. eigenvalues --   -0.62542  -0.62271  -0.61672  -0.61271  -0.61062
 Alpha  occ. eigenvalues --   -0.60653  -0.59622  -0.59301  -0.58974  -0.58555
 Alpha  occ. eigenvalues --   -0.58256  -0.57396  -0.56463  -0.56314  -0.55784
 Alpha  occ. eigenvalues --   -0.55121  -0.54731  -0.54609  -0.54349  -0.54081
 Alpha  occ. eigenvalues --   -0.52895  -0.52644  -0.52241  -0.51984  -0.51626
 Alpha  occ. eigenvalues --   -0.50387  -0.50025  -0.49601  -0.49229  -0.48276
 Alpha  occ. eigenvalues --   -0.48101  -0.47055  -0.46012  -0.44511  -0.42630
 Alpha  occ. eigenvalues --   -0.41803  -0.41348  -0.40873  -0.39035  -0.38713
 Alpha  occ. eigenvalues --   -0.38176  -0.37917  -0.33233
 Alpha virt. eigenvalues --    0.17153   0.19043   0.19820   0.20359   0.20658
 Alpha virt. eigenvalues --    0.21748   0.22053   0.23226   0.23435   0.24138
 Alpha virt. eigenvalues --    0.25095   0.25606   0.26573   0.27058   0.27498

 Mulliken atomic charges:
              1
     1  C   -0.278191
     2  N   -0.782127
     3  C    0.816980
     4  O   -0.625284
     5  C    0.108136
     6  C   -0.495984
     7  C   -0.335850
     8  C   -0.332382
     9  C   -0.344245
    10  C   -0.191882
    11  C   -0.167565
    12  C   -0.351669
    13  C   -0.311217
    14  C   -0.329361
    15  C    0.090654
    16  C   -0.509793
    17  N   -0.787082
    18  C    0.767205
    19  C   -0.595734
    20  O   -0.614842
    21  C    0.820541
    22  O   -0.640222
    23  N   -0.806189
    24  C   -0.274552
    25  N   -0.843819
    26  C    0.745873
    27  C   -0.588458
    28  O   -0.592138
    29  H    0.184871
    30  H    0.197275
    31  H    0.161578
    32  H    0.390196
    33  H    0.239656
    34  H    0.130487
    35  H    0.206473
    36  H    0.154555
    37  H    0.182647
    38  H    0.202512
    39  H    0.171890
    40  H    0.165522
    41  H    0.181753
    42  H    0.183713
    43  H    0.175974
    44  H    0.178576
    45  H    0.172176
    46  H    0.151659
    47  H    0.193097
    48  H    0.176969
    49  H    0.183260
    50  H    0.185351
    51  H    0.147910
    52  H    0.225670
    53  H    0.390693
    54  H    0.210610
    55  H    0.208604
    56  H    0.177844
    57  H    0.395701
    58  H    0.163954
    59  H    0.196900
    60  H    0.185180
    61  H    0.381162
    62  H    0.217984
    63  H    0.176690
    64  H    0.200102
 Sum of Mulliken atomic charges =   0.00000

 Dipole moment (field-independent basis, Debye):
    X=             -5.1780    Y=             -4.4713    Z=              1.6393  Tot=              7.0351
 Quadrupole moment (field-independent basis, Debye-Ang):
   XX=           -176.6938   YY=           -152.7995   ZZ=           -177.6438
   XY=             19.6373   XZ=            -22.2168   YZ=              6.6865

 Normal termination of Gaussian 09 at Thu Dec  5 16:46:02 2019.
