 Gaussian 09, Revision A.02,
 Gaussian 09:  EM64L-G09RevA.02 11-Jun-2009

 ---------------------------------
 #SP HF/6-31G* Geom=(ModRedundant)
 ---------------------------------

 ------------
 paramfit run
 ------------
 Symbolic Z-matrix:
 Charge =  0 Multiplicity = 1

                         Standard orientation:
 ---------------------------------------------------------------------
 Center     Atomic      Atomic             Coordinates (Angstroms)
 Number     Number       Type             X           Y           Z
 ---------------------------------------------------------------------
      1          6    20001001        4.137366   -3.253862   -0.515624
      2          7    20001014        4.467920   -1.971479    0.070443
      3          6    20001002        3.635150   -0.917739   -0.097588
      4          8    20001024        2.518989   -1.038415   -0.521105
      5          6    90000001        4.142361    0.442843    0.413235
      6          6    90000002        3.338766    1.569732   -0.244181
      7          6    90000002        4.043181    0.502900    1.961834
      8          6    90000002        2.663142    0.357410    2.628137
      9          6    90000002        1.466473    1.058469    1.954983
     10          6    20001004        1.243666    0.649929    0.517719
     11          6    20001004        0.378885   -0.239326    0.057135
     12          6    90000002       -0.599469   -1.067373    0.855204
     13          6    90000002       -2.051295   -0.558492    0.802223
     14          6    90000002       -2.626695   -0.556396   -0.620388
     15          6    90000002       -4.133893   -0.236675   -0.795827
     16          6    90000002       -4.436899   -0.238005   -2.303023
     17          7    20001014       -4.909099   -1.283595   -0.144257
     18          6    20001002       -6.264524   -1.190515   -0.013043
     19          6    20001001       -6.873758   -2.136326    0.996451
     20          8    20001024       -6.928806   -0.419096   -0.647696
     21          6    20001002       -4.438047    1.102912   -0.087503
     22          8    20001024       -4.650645    1.128567    1.094899
     23          7    20001014       -4.351968    2.230633   -0.825620
     24          6    20001001       -4.673802    3.514377   -0.236868
     25          7    20001014        5.575959    0.596445    0.125774
     26          6    20001002        6.102492    0.572061   -1.131939
     27          6    20001001        7.518985    1.096098   -1.246174
     28          8    20001024        5.496654    0.155849   -2.078442
     29          1    20001035        4.152919   -3.218206   -1.598877
     30          1    20001035        3.151226   -3.557719   -0.196373
     31          1    20001035        4.857460   -3.986343   -0.173148
     32          1    20001029        5.430564   -1.761555    0.195083
     33          1    20001034        2.281688    1.455971   -0.058233
     34          1    20001034        3.667515    2.526094    0.151462
     35          1    20001034        3.486045    1.562124   -1.314311
     36          1    20001034        4.432721    1.478926    2.242639
     37          1    20001034        4.727471   -0.229111    2.379194
     38          1    20001034        2.445072   -0.706258    2.654124
     39          1    20001034        2.714993    0.679498    3.663002
     40          1    20001034        1.590832    2.132550    2.002377
     41          1    20001034        0.587753    0.832561    2.548828
     42          1    20001033        1.866319    1.153419   -0.204026
     43          1    20001033        0.356604   -0.398746   -1.009566
     44          1    20001034       -0.293905   -1.113203    1.893470
     45          1    20001034       -0.568957   -2.091315    0.484795
     46          1    20001034       -2.646119   -1.187457    1.458701
     47          1    20001034       -2.096556    0.437483    1.222715
     48          1    20001034       -2.461391   -1.529367   -1.078140
     49          1    20001034       -2.077005    0.163711   -1.215061
     50          1    20001034       -4.291256   -1.241622   -2.685281
     51          1    20001034       -3.758520    0.416116   -2.840897
     52          1    20001034       -5.456302    0.054763   -2.505121
     53          1    20001029       -4.449986   -1.747467    0.605909
     54          1    20001034       -7.922336   -2.262996    0.773969
     55          1    20001034       -6.778031   -1.696215    1.984512
     56          1    20001034       -6.379313   -3.101665    1.001696
     57          1    20001029       -4.415491    2.155109   -1.813330
     58          1    20001035       -4.426990    4.292064   -0.947646
     59          1    20001035       -4.091634    3.660099    0.661170
     60          1    20001035       -5.725517    3.586954    0.020778
     61          1    20001029        6.102708    1.083041    0.816648
     62          1    20001034        7.970427    0.690224   -2.139729
     63          1    20001034        8.122529    0.839576   -0.382761
     64          1    20001034        7.492729    2.177584   -1.332782
 ---------------------------------------------------------------------

 SCF Done:  E(RHF) =  -1295.25627850     A.U. after   14 cycles

 The electronic state is 1-A.
 Alpha  occ. eigenvalues --  -20.53362 -20.51548 -20.51420 -20.51078 -15.59284
 Alpha  occ. eigenvalues --  -15.57430 -15.57238 -15.56922 -11.35681 -11.33754
 Alpha  occ. eigenvalues --  -11.33672 -11.33145 -11.28959 -11.27854 -11.24851
 Alpha  occ. eigenvalues --  -11.24684 -11.24145 -11.24027 -11.22738 -11.22413
 Alpha  occ. eigenvalues --  -11.22102 -11.22092 -11.21280 -11.21133 -11.20845
 Alpha  occ. eigenvalues --  -11.19531 -11.17355 -11.16960  -1.40338  -1.39037
 Alpha  occ. eigenvalues --   -1.38856  -1.37588  -1.25173  -1.22941  -1.22146
 Alpha  occ. eigenvalues --   -1.21998  -1.13825  -1.08553  -1.06573  -1.04560
 Alpha  occ. eigenvalues --   -1.03429  -0.99975  -0.98466  -0.96431  -0.95041
 Alpha  occ. eigenvalues --   -0.94270  -0.90725  -0.88881  -0.85556  -0.83273
 Alpha  occ. eigenvalues --   -0.81195  -0.79068  -0.78684  -0.78091  -0.76472
 Alpha  occ. eigenvalues --   -0.76350  -0.70893  -0.70321  -0.68376  -0.68248
 Alpha  occ. eigenvalues --   -0.66930  -0.65558  -0.64365  -0.63998  -0.63388
 Alpha  occ. eigenvalues --   -0.62740  -0.62489  -0.61355  -0.60989  -0.60827
 Alpha  occ. eigenvalues --   -0.60673  -0.60072  -0.59114  -0.58372  -0.58139
 Alpha  occ. eigenvalues --   -0.58013  -0.56867  -0.56168  -0.55528  -0.55436
 Alpha  occ. eigenvalues --   -0.54778  -0.54574  -0.54340  -0.54086  -0.53573
 Alpha  occ. eigenvalues --   -0.53333  -0.52875  -0.52187  -0.51380  -0.50851
 Alpha  occ. eigenvalues --   -0.50142  -0.49327  -0.49041  -0.48087  -0.47504
 Alpha  occ. eigenvalues --   -0.47283  -0.46529  -0.44689  -0.43026  -0.42026
 Alpha  occ. eigenvalues --   -0.40939  -0.40553  -0.39772  -0.38813  -0.38320
 Alpha  occ. eigenvalues --   -0.37762  -0.32529  -0.28808
 Alpha virt. eigenvalues --    0.17678   0.19064   0.20193   0.20446   0.21036
 Alpha virt. eigenvalues --    0.22161   0.22765   0.23469   0.24041   0.24942
 Alpha virt. eigenvalues --    0.25734   0.26460   0.27117   0.27644   0.28153

 Mulliken atomic charges:
              1
     1  C   -0.277874
     2  N   -0.786218
     3  C    0.828926
     4  O   -0.621328
     5  C    0.095040
     6  C   -0.567231
     7  C   -0.322052
     8  C   -0.311032
     9  C   -0.364130
    10  C   -0.161927
    11  C   -0.130299
    12  C   -0.356460
    13  C   -0.309446
    14  C   -0.327489
    15  C    0.089612
    16  C   -0.509662
    17  N   -0.787231
    18  C    0.767457
    19  C   -0.595442
    20  O   -0.615228
    21  C    0.821192
    22  O   -0.641442
    23  N   -0.805498
    24  C   -0.274166
    25  N   -0.838694
    26  C    0.749690
    27  C   -0.588760
    28  O   -0.595657
    29  H    0.183782
    30  H    0.194138
    31  H    0.162903
    32  H    0.390580
    33  H    0.261326
    34  H    0.144042
    35  H    0.206489
    36  H    0.159414
    37  H    0.179659
    38  H    0.172597
    39  H    0.167302
    40  H    0.165112
    41  H    0.191047
    42  H    0.195082
    43  H    0.181817
    44  H    0.163377
    45  H    0.159099
    46  H    0.144823
    47  H    0.191867
    48  H    0.175652
    49  H    0.186280
    50  H    0.184291
    51  H    0.149576
    52  H    0.223930
    53  H    0.390249
    54  H    0.209724
    55  H    0.208104
    56  H    0.176614
    57  H    0.395657
    58  H    0.163865
    59  H    0.196920
    60  H    0.183741
    61  H    0.381331
    62  H    0.217067
    63  H    0.176348
    64  H    0.201540
 Sum of Mulliken atomic charges =   0.00000

 Dipole moment (field-independent basis, Debye):
    X=              7.2388    Y=              0.1071    Z=              2.2876  Tot=              7.5924
 Quadrupole moment (field-independent basis, Debye-Ang):
   XX=           -163.9012   YY=           -155.0076   ZZ=           -175.2265
   XY=             10.3329   XZ=             17.2563   YZ=             -6.9944

 Normal termination of Gaussian 09 at Thu Dec  5 17:07:50 2019.
