 Gaussian 09, Revision A.02,
 Gaussian 09:  EM64L-G09RevA.02 11-Jun-2009

 ---------------------------------
 #SP HF/6-31G* Geom=(ModRedundant)
 ---------------------------------

 ------------
 paramfit run
 ------------
 Symbolic Z-matrix:
 Charge =  0 Multiplicity = 1

                         Standard orientation:
 ---------------------------------------------------------------------
 Center     Atomic      Atomic             Coordinates (Angstroms)
 Number     Number       Type             X           Y           Z
 ---------------------------------------------------------------------
      1          6    20001001       -7.033692    2.080067    1.888438
      2          7    20001014       -6.220206    0.993577    1.383436
      3          6    20001002       -5.343038    1.218240    0.377350
      4          8    20001024       -5.036506    2.322893    0.023053
      5          6    90000001       -4.643454   -0.021028   -0.209320
      6          6    90000002       -4.070704    0.318312   -1.589410
      7          6    90000002       -3.535793   -0.517862    0.759105
      8          6    90000002       -2.370072    0.425226    1.107409
      9          6    90000002       -1.005819   -0.214253    1.433777
     10          6    20001004       -0.465878   -1.103457    0.338306
     11          6    20001004        0.429645   -0.792268   -0.584708
     12          6    90000002        1.133350    0.530382   -0.772193
     13          6    90000002        2.582563    0.556168   -0.253848
     14          6    90000002        3.485074   -0.459244   -0.967517
     15          6    90000002        5.006226   -0.417429   -0.669197
     16          6    90000002        5.665318   -1.563719   -1.453459
     17          7    20001014        5.535606    0.856769   -1.135788
     18          6    20001002        6.821730    1.232828   -0.875939
     19          6    20001001        7.109634    2.702709   -1.079326
     20          8    20001024        7.665404    0.460806   -0.513535
     21          6    20001002        5.209498   -0.494956    0.860966
     22          8    20001024        5.129920    0.497409    1.533877
     23          7    20001014        5.373222   -1.719911    1.405631
     24          6    20001001        5.619271   -1.859838    2.826223
     25          7    20001014       -5.586273   -1.145060   -0.304582
     26          6    20001002       -6.731454   -1.111674   -1.044257
     27          6    20001001       -7.371729   -2.460452   -1.299136
     28          8    20001024       -7.206692   -0.090797   -1.454257
     29          1    20001035       -7.740044    2.433710    1.146176
     30          1    20001035       -6.400449    2.905095    2.180079
     31          1    20001035       -7.576052    1.730566    2.757948
     32          1    20001029       -6.592325    0.075344    1.451715
     33          1    20001034       -3.392908    1.156571   -1.536050
     34          1    20001034       -3.538806   -0.543397   -1.981557
     35          1    20001034       -4.865242    0.582136   -2.272075
     36          1    20001034       -3.105251   -1.397214    0.285192
     37          1    20001034       -4.007871   -0.865300    1.672729
     38          1    20001034       -2.229307    1.071071    0.245614
     39          1    20001034       -2.652034    1.076064    1.928555
     40          1    20001034       -1.073032   -0.784248    2.351356
     41          1    20001034       -0.312750    0.595189    1.634507
     42          1    20001033       -0.863255   -2.105445    0.323244
     43          1    20001033        0.700503   -1.563510   -1.288686
     44          1    20001034        0.582748    1.322357   -0.279161
     45          1    20001034        1.132027    0.775614   -1.833538
     46          1    20001034        2.961277    1.566446   -0.381478
     47          1    20001034        2.584327    0.369988    0.812062
     48          1    20001034        3.377508   -0.343942   -2.043932
     49          1    20001034        3.140550   -1.458018   -0.726474
     50          1    20001034        5.556621   -1.366218   -2.513534
     51          1    20001034        5.178434   -2.511400   -1.247971
     52          1    20001034        6.719019   -1.644144   -1.232130
     53          1    20001029        4.881072    1.604874   -1.161033
     54          1    20001034        8.171266    2.838774   -1.218918
     55          1    20001034        6.803659    3.241727   -0.187719
     56          1    20001034        6.571478    3.110491   -1.928139
     57          1    20001029        5.669894   -2.462767    0.817872
     58          1    20001035        5.599649   -2.911982    3.078268
     59          1    20001035        4.846424   -1.349820    3.382295
     60          1    20001035        6.579415   -1.442239    3.111687
     61          1    20001029       -5.200124   -2.045612   -0.127262
     62          1    20001034       -8.417106   -2.313029   -1.528105
     63          1    20001034       -7.273979   -3.128256   -0.450588
     64          1    20001034       -6.892842   -2.926092   -2.154500
 ---------------------------------------------------------------------

 SCF Done:  E(RHF) =  -1295.62065903     A.U. after   14 cycles

 The electronic state is 1-A.
 Alpha  occ. eigenvalues --  -20.53517 -20.52170 -20.51841 -20.51469 -15.59491
 Alpha  occ. eigenvalues --  -15.58168 -15.57665 -15.57051 -11.35857 -11.34372
 Alpha  occ. eigenvalues --  -11.33921 -11.33474 -11.28971 -11.28771 -11.25301
 Alpha  occ. eigenvalues --  -11.24539 -11.24282 -11.23885 -11.23642 -11.22975
 Alpha  occ. eigenvalues --  -11.22902 -11.22846 -11.22775 -11.22644 -11.22581
 Alpha  occ. eigenvalues --  -11.22569 -11.21978 -11.20651  -1.40442  -1.39551
 Alpha  occ. eigenvalues --   -1.38280  -1.38261  -1.25271  -1.23706  -1.22878
 Alpha  occ. eigenvalues --   -1.21663  -1.11196  -1.09366  -1.07432  -1.04497
 Alpha  occ. eigenvalues --   -1.01363  -0.99390  -0.98849  -0.95367  -0.95159
 Alpha  occ. eigenvalues --   -0.94784  -0.92437  -0.87162  -0.85766  -0.83128
 Alpha  occ. eigenvalues --   -0.81614  -0.79683  -0.78876  -0.77092  -0.76781
 Alpha  occ. eigenvalues --   -0.72359  -0.71489  -0.70923  -0.69136  -0.68187
 Alpha  occ. eigenvalues --   -0.66950  -0.65639  -0.64634  -0.63984  -0.63609
 Alpha  occ. eigenvalues --   -0.63087  -0.62305  -0.62085  -0.61589  -0.61357
 Alpha  occ. eigenvalues --   -0.60888  -0.59679  -0.59484  -0.58945  -0.58793
 Alpha  occ. eigenvalues --   -0.57884  -0.57483  -0.57006  -0.56574  -0.56109
 Alpha  occ. eigenvalues --   -0.55273  -0.55203  -0.54944  -0.54258  -0.53753
 Alpha  occ. eigenvalues --   -0.53262  -0.52905  -0.52487  -0.51958  -0.51875
 Alpha  occ. eigenvalues --   -0.51241  -0.50640  -0.49967  -0.49156  -0.48859
 Alpha  occ. eigenvalues --   -0.48687  -0.46861  -0.46649  -0.45124  -0.42669
 Alpha  occ. eigenvalues --   -0.41884  -0.41709  -0.41196  -0.39048  -0.39032
 Alpha  occ. eigenvalues --   -0.38522  -0.37883  -0.35188
 Alpha virt. eigenvalues --    0.16575   0.18944   0.19476   0.20308   0.20989
 Alpha virt. eigenvalues --    0.21427   0.21831   0.22927   0.23522   0.24046
 Alpha virt. eigenvalues --    0.24803   0.25739   0.26592   0.26689   0.27232

 Mulliken atomic charges:
              1
     1  C   -0.278230
     2  N   -0.782678
     3  C    0.817078
     4  O   -0.623766
     5  C    0.097291
     6  C   -0.471985
     7  C   -0.327458
     8  C   -0.317257
     9  C   -0.351135
    10  C   -0.177792
    11  C   -0.169531
    12  C   -0.357935
    13  C   -0.311568
    14  C   -0.329543
    15  C    0.091181
    16  C   -0.509755
    17  N   -0.787371
    18  C    0.767060
    19  C   -0.595807
    20  O   -0.614074
    21  C    0.820200
    22  O   -0.639277
    23  N   -0.806385
    24  C   -0.275100
    25  N   -0.842298
    26  C    0.744874
    27  C   -0.588627
    28  O   -0.591437
    29  H    0.184700
    30  H    0.198159
    31  H    0.161217
    32  H    0.389524
    33  H    0.199113
    34  H    0.146185
    35  H    0.211439
    36  H    0.159955
    37  H    0.176480
    38  H    0.184213
    39  H    0.179051
    40  H    0.167421
    41  H    0.182972
    42  H    0.168654
    43  H    0.173725
    44  H    0.182142
    45  H    0.166315
    46  H    0.154543
    47  H    0.196620
    48  H    0.175260
    49  H    0.183308
    50  H    0.184722
    51  H    0.147778
    52  H    0.227039
    53  H    0.390310
    54  H    0.211487
    55  H    0.209481
    56  H    0.177458
    57  H    0.395734
    58  H    0.164545
    59  H    0.197547
    60  H    0.185999
    61  H    0.382008
    62  H    0.218573
    63  H    0.176982
    64  H    0.200669
 Sum of Mulliken atomic charges =   0.00000

 Dipole moment (field-independent basis, Debye):
    X=             -1.7149    Y=             -6.7431    Z=              0.5391  Tot=              6.9786
 Quadrupole moment (field-independent basis, Debye-Ang):
   XX=           -206.2551   YY=           -159.6995   ZZ=           -169.6982
   XY=             26.0514   XZ=            -23.5658   YZ=             -2.0029

 Normal termination of Gaussian 09 at Thu Dec  5 16:14:37 2019.
