 Gaussian 09, Revision A.02,
 Gaussian 09:  EM64L-G09RevA.02 11-Jun-2009

 ---------------------------------
 #SP HF/6-31G* Geom=(ModRedundant)
 ---------------------------------

 ------------
 paramfit run
 ------------
 Symbolic Z-matrix:
 Charge =  0 Multiplicity = 1

                         Standard orientation:
 ---------------------------------------------------------------------
 Center     Atomic      Atomic             Coordinates (Angstroms)
 Number     Number       Type             X           Y           Z
 ---------------------------------------------------------------------
      1          6    20001001        3.757803   -3.134259   -0.799854
      2          7    20001014        4.225979   -1.953812   -0.103721
      3          6    20001002        3.513809   -0.804623   -0.169212
      4          8    20001024        2.391717   -0.764003   -0.592303
      5          6    90000001        4.166243    0.440745    0.457504
      6          6    90000002        3.491740    1.703350   -0.089046
      7          6    90000002        4.072146    0.371189    2.006023
      8          6    90000002        2.683577    0.317642    2.668325
      9          6    90000002        1.516312    1.012610    1.939525
     10          6    20001004        1.288885    0.516890    0.530690
     11          6    20001004        0.396868   -0.371114    0.122632
     12          6    90000002       -0.614751   -1.110202    0.965324
     13          6    90000002       -2.047716   -0.556778    0.865824
     14          6    90000002       -2.613399   -0.630015   -0.558799
     15          6    90000002       -4.107449   -0.271504   -0.768394
     16          6    90000002       -4.400473   -0.363092   -2.274780
     17          7    20001014       -4.922665   -1.245555   -0.055528
     18          6    20001002       -6.274884   -1.097755    0.057246
     19          6    20001001       -6.923069   -1.952754    1.121970
     20          8    20001024       -6.907908   -0.348213   -0.633122
     21          6    20001002       -4.369669    1.121963   -0.153400
     22          8    20001024       -4.588967    1.233713    1.022758
     23          7    20001014       -4.239789    2.194312   -0.964066
     24          6    20001001       -4.520832    3.524715   -0.464823
     25          7    20001014        5.608426    0.462268    0.172767
     26          6    20001002        6.130819    0.494223   -1.086501
     27          6    20001001        7.596323    0.868670   -1.165271
     28          8    20001024        5.484331    0.233806   -2.061374
     29          1    20001035        3.778626   -3.002846   -1.875608
     30          1    20001035        2.743894   -3.356234   -0.500792
     31          1    20001035        4.392912   -3.968880   -0.530787
     32          1    20001029        5.205650   -1.862338    0.031050
     33          1    20001034        2.428312    1.689333    0.094955
     34          1    20001034        3.922685    2.578456    0.388148
     35          1    20001034        3.638744    1.776372   -1.156746
     36          1    20001034        4.565824    1.269495    2.370096
     37          1    20001034        4.671616   -0.465820    2.350017
     38          1    20001034        2.428655   -0.733862    2.763041
     39          1    20001034        2.739789    0.706127    3.679905
     40          1    20001034        1.677463    2.082593    1.916505
     41          1    20001034        0.626441    0.856939    2.539300
     42          1    20001033        1.933293    0.949558   -0.217409
     43          1    20001033        0.376048   -0.600520   -0.931265
     44          1    20001034       -0.317742   -1.097026    2.006994
     45          1    20001034       -0.617283   -2.157028    0.664087
     46          1    20001034       -2.668228   -1.119873    1.557390
     47          1    20001034       -2.061220    0.466005    1.218759
     48          1    20001034       -2.478887   -1.636438   -0.949379
     49          1    20001034       -2.035241    0.029630   -1.195157
     50          1    20001034       -4.287162   -1.394367   -2.588172
     51          1    20001034       -3.696361    0.230154   -2.848945
     52          1    20001034       -5.407789   -0.049873   -2.504878
     53          1    20001029       -4.484791   -1.673710    0.727837
     54          1    20001034       -7.973929   -2.058157    0.899160
     55          1    20001034       -6.818620   -1.451198    2.079394
     56          1    20001034       -6.462381   -2.931889    1.195739
     57          1    20001029       -4.299439    2.055244   -1.945092
     58          1    20001035       -4.242613    4.244359   -1.223524
     59          1    20001035       -3.939845    3.710113    0.426642
     60          1    20001035       -5.571064    3.650150   -0.221858
     61          1    20001029        6.184350    0.824075    0.900060
     62          1    20001034        8.001819    0.498296   -2.095524
     63          1    20001034        8.166989    0.470890   -0.333609
     64          1    20001034        7.688746    1.949935   -1.154073
 ---------------------------------------------------------------------

 SCF Done:  E(RHF) =  -1295.40985283     A.U. after   15 cycles

 The electronic state is 1-A.
 Alpha  occ. eigenvalues --  -20.53797 -20.51578 -20.51349 -20.50817 -15.59818
 Alpha  occ. eigenvalues --  -15.57396 -15.57189 -15.56677 -11.36122 -11.33735
 Alpha  occ. eigenvalues --  -11.33553 -11.32886 -11.29469 -11.27556 -11.25000
 Alpha  occ. eigenvalues --  -11.24483 -11.24470 -11.24263 -11.22740 -11.21993
 Alpha  occ. eigenvalues --  -11.21942 -11.21542 -11.20896 -11.20685 -11.20249
 Alpha  occ. eigenvalues --  -11.19289 -11.17752 -11.17184  -1.40944  -1.40115
 Alpha  occ. eigenvalues --   -1.38628  -1.37356  -1.25697  -1.22690  -1.22379
 Alpha  occ. eigenvalues --   -1.21906  -1.11142  -1.08221  -1.05978  -1.03356
 Alpha  occ. eigenvalues --   -1.01402  -1.00107  -0.98249  -0.95874  -0.95119
 Alpha  occ. eigenvalues --   -0.94059  -0.90949  -0.87038  -0.85267  -0.82636
 Alpha  occ. eigenvalues --   -0.81021  -0.79087  -0.78653  -0.77143  -0.76108
 Alpha  occ. eigenvalues --   -0.75456  -0.70677  -0.70121  -0.68600  -0.67988
 Alpha  occ. eigenvalues --   -0.66894  -0.65920  -0.64665  -0.63793  -0.63170
 Alpha  occ. eigenvalues --   -0.62896  -0.62738  -0.61333  -0.61061  -0.60824
 Alpha  occ. eigenvalues --   -0.60482  -0.59869  -0.59301  -0.58192  -0.57867
 Alpha  occ. eigenvalues --   -0.57633  -0.56757  -0.55907  -0.55525  -0.55241
 Alpha  occ. eigenvalues --   -0.55006  -0.54422  -0.54369  -0.54068  -0.53854
 Alpha  occ. eigenvalues --   -0.53208  -0.52677  -0.51669  -0.51200  -0.51052
 Alpha  occ. eigenvalues --   -0.50328  -0.49125  -0.48821  -0.48451  -0.47300
 Alpha  occ. eigenvalues --   -0.46853  -0.46356  -0.44294  -0.44189  -0.42696
 Alpha  occ. eigenvalues --   -0.40683  -0.40343  -0.40081  -0.39477  -0.38087
 Alpha  occ. eigenvalues --   -0.37545  -0.36778  -0.26511
 Alpha virt. eigenvalues --    0.18020   0.18637   0.20063   0.20430   0.20788
 Alpha virt. eigenvalues --    0.22391   0.23000   0.23529   0.24254   0.24700
 Alpha virt. eigenvalues --    0.25679   0.26405   0.27052   0.27653   0.28312

 Mulliken atomic charges:
              1
     1  C   -0.278346
     2  N   -0.786452
     3  C    0.829945
     4  O   -0.605686
     5  C    0.094762
     6  C   -0.559589
     7  C   -0.320413
     8  C   -0.310742
     9  C   -0.363040
    10  C   -0.218784
    11  C   -0.151360
    12  C   -0.347870
    13  C   -0.305122
    14  C   -0.326261
    15  C    0.089440
    16  C   -0.509505
    17  N   -0.787422
    18  C    0.767477
    19  C   -0.595257
    20  O   -0.615762
    21  C    0.821649
    22  O   -0.641744
    23  N   -0.805193
    24  C   -0.273840
    25  N   -0.842161
    26  C    0.748006
    27  C   -0.589078
    28  O   -0.593617
    29  H    0.182953
    30  H    0.194823
    31  H    0.163723
    32  H    0.390492
    33  H    0.252334
    34  H    0.151233
    35  H    0.215204
    36  H    0.160378
    37  H    0.181538
    38  H    0.171692
    39  H    0.168315
    40  H    0.169469
    41  H    0.187825
    42  H    0.244589
    43  H    0.183924
    44  H    0.158009
    45  H    0.149186
    46  H    0.139721
    47  H    0.189820
    48  H    0.172688
    49  H    0.187913
    50  H    0.183243
    51  H    0.149716
    52  H    0.222971
    53  H    0.390461
    54  H    0.209037
    55  H    0.207998
    56  H    0.176196
    57  H    0.395355
    58  H    0.163384
    59  H    0.196965
    60  H    0.182989
    61  H    0.383377
    62  H    0.218661
    63  H    0.177572
    64  H    0.202210
 Sum of Mulliken atomic charges =   0.00000

 Dipole moment (field-independent basis, Debye):
    X=              8.2662    Y=             -0.6250    Z=              2.2298  Tot=              8.5844
 Quadrupole moment (field-independent basis, Debye-Ang):
   XX=           -160.1290   YY=           -156.4318   ZZ=           -174.4828
   XY=              9.1525   XZ=             16.2904   YZ=             -6.0992

 Normal termination of Gaussian 09 at Thu Dec  5 17:14:34 2019.
