 Gaussian 09, Revision A.02,
 Gaussian 09:  EM64L-G09RevA.02 11-Jun-2009

 ---------------------------------
 #SP HF/6-31G* Geom=(ModRedundant)
 ---------------------------------

 ------------
 paramfit run
 ------------
 Symbolic Z-matrix:
 Charge =  0 Multiplicity = 1

                         Standard orientation:
 ---------------------------------------------------------------------
 Center     Atomic      Atomic             Coordinates (Angstroms)
 Number     Number       Type             X           Y           Z
 ---------------------------------------------------------------------
      1          6    20001001       -4.726277    3.168676    0.022500
      2          7    20001014       -4.713368    1.739339    0.255037
      3          6    20001002       -4.800241    0.884492   -0.790811
      4          8    20001024       -4.663989    1.240686   -1.928487
      5          6    90000001       -4.948212   -0.607813   -0.443656
      6          6    90000002       -5.490545   -1.366167   -1.659640
      7          6    90000002       -3.584734   -1.185264    0.024402
      8          6    90000002       -2.388847   -1.155598   -0.944418
      9          6    90000002       -1.230627   -0.190754   -0.621557
     10          6    20001004       -0.615040   -0.403595    0.741538
     11          6    20001004        0.486836   -1.075895    1.032463
     12          6    90000002        1.401887   -1.798319    0.073014
     13          6    90000002        2.701368   -1.041120   -0.254954
     14          6    90000002        3.570685   -0.791823    0.984825
     15          6    90000002        4.987294   -0.197551    0.773386
     16          6    90000002        5.616231    0.009572    2.160826
     17          7    20001014        5.783805   -1.154644    0.017691
     18          6    20001002        7.030403   -0.840441   -0.440922
     19          6    20001001        7.568242   -1.764433   -1.509460
     20          8    20001024        7.657972    0.096397   -0.031492
     21          6    20001002        4.858429    1.094202   -0.065358
     22          8    20001024        4.790216    1.034418   -1.263567
     23          7    20001014        4.723730    2.259639    0.603666
     24          6    20001001        4.649501    3.512134   -0.120175
     25          7    20001014       -5.841417   -0.779447    0.711402
     26          6    20001002       -7.142890   -0.372581    0.728704
     27          6    20001001       -7.981667   -0.948525    1.850694
     28          8    20001024       -7.591280    0.394100   -0.075837
     29          1    20001035       -5.678910    3.504696   -0.370604
     30          1    20001035       -3.952012    3.430559   -0.683654
     31          1    20001035       -4.530169    3.673221    0.960226
     32          1    20001029       -5.068130    1.415476    1.124256
     33          1    20001034       -4.854276   -1.230238   -2.520812
     34          1    20001034       -5.551269   -2.425190   -1.427221
     35          1    20001034       -6.475207   -1.005775   -1.919416
     36          1    20001034       -3.775689   -2.228737    0.265069
     37          1    20001034       -3.308993   -0.703634    0.957289
     38          1    20001034       -1.980198   -2.161783   -0.959040
     39          1    20001034       -2.733831   -0.956043   -1.953644
     40          1    20001034       -1.568342    0.834417   -0.701183
     41          1    20001034       -0.481503   -0.319864   -1.394846
     42          1    20001033       -1.144700    0.055227    1.560718
     43          1    20001033        0.779208   -1.118037    2.070010
     44          1    20001034        0.885237   -2.003678   -0.856698
     45          1    20001034        1.654732   -2.768092    0.499868
     46          1    20001034        3.243485   -1.620933   -0.996776
     47          1    20001034        2.456752   -0.101328   -0.732219
     48          1    20001034        3.704608   -1.726198    1.525697
     49          1    20001034        3.040070   -0.121260    1.650516
     50          1    20001034        5.757872   -0.959172    2.625644
     51          1    20001034        4.962751    0.587194    2.806345
     52          1    20001034        6.578311    0.495054    2.094124
     53          1    20001029        5.266483   -1.766432   -0.571211
     54          1    20001034        8.644112   -1.682477   -1.538586
     55          1    20001034        7.169014   -1.452136   -2.469779
     56          1    20001034        7.282164   -2.796566   -1.338453
     57          1    20001029        5.021425    2.298698    1.549796
     58          1    20001035        4.423057    4.303932    0.581752
     59          1    20001035        3.863169    3.460538   -0.858854
     60          1    20001035        5.581619    3.740198   -0.627026
     61          1    20001029       -5.600206   -1.517512    1.334800
     62          1    20001034       -8.831326   -0.302803    2.018316
     63          1    20001034       -7.418025   -1.057245    2.770497
     64          1    20001034       -8.344665   -1.928264    1.557189
 ---------------------------------------------------------------------

 SCF Done:  E(RHF) =  -1295.61941626     A.U. after   14 cycles

 The electronic state is 1-A.
 Alpha  occ. eigenvalues --  -20.53571 -20.52154 -20.51737 -20.51666 -15.59528
 Alpha  occ. eigenvalues --  -15.58047 -15.57645 -15.57234 -11.35897 -11.34360
 Alpha  occ. eigenvalues --  -11.33823 -11.33637 -11.28967 -11.28716 -11.25132
 Alpha  occ. eigenvalues --  -11.24700 -11.24308 -11.23911 -11.23584 -11.22827
 Alpha  occ. eigenvalues --  -11.22680 -11.22600 -11.22581 -11.22575 -11.22504
 Alpha  occ. eigenvalues --  -11.22282 -11.21937 -11.20794  -1.40499  -1.39491
 Alpha  occ. eigenvalues --   -1.38451  -1.38217  -1.25332  -1.23676  -1.22758
 Alpha  occ. eigenvalues --   -1.21834  -1.11020  -1.09332  -1.07371  -1.04400
 Alpha  occ. eigenvalues --   -1.01328  -0.99373  -0.98832  -0.95322  -0.95266
 Alpha  occ. eigenvalues --   -0.94709  -0.92355  -0.87268  -0.85808  -0.82981
 Alpha  occ. eigenvalues --   -0.81469  -0.79624  -0.78857  -0.77012  -0.76948
 Alpha  occ. eigenvalues --   -0.72147  -0.71408  -0.71084  -0.69042  -0.68117
 Alpha  occ. eigenvalues --   -0.66932  -0.65619  -0.64630  -0.63979  -0.63857
 Alpha  occ. eigenvalues --   -0.62575  -0.62235  -0.61990  -0.61547  -0.61260
 Alpha  occ. eigenvalues --   -0.60672  -0.60191  -0.59412  -0.58854  -0.58563
 Alpha  occ. eigenvalues --   -0.57987  -0.57918  -0.56731  -0.56504  -0.56271
 Alpha  occ. eigenvalues --   -0.55441  -0.54963  -0.54838  -0.54465  -0.54220
 Alpha  occ. eigenvalues --   -0.53246  -0.52797  -0.52353  -0.52220  -0.51597
 Alpha  occ. eigenvalues --   -0.51098  -0.50406  -0.49898  -0.49327  -0.48643
 Alpha  occ. eigenvalues --   -0.48147  -0.47428  -0.46592  -0.44888  -0.42754
 Alpha  occ. eigenvalues --   -0.41892  -0.41641  -0.41173  -0.39145  -0.38971
 Alpha  occ. eigenvalues --   -0.38426  -0.38039  -0.34935
 Alpha virt. eigenvalues --    0.17012   0.18857   0.19526   0.20043   0.20463
 Alpha virt. eigenvalues --    0.21464   0.21812   0.22952   0.23527   0.23888
 Alpha virt. eigenvalues --    0.24822   0.25397   0.26266   0.26944   0.27431

 Mulliken atomic charges:
              1
     1  C   -0.278492
     2  N   -0.785056
     3  C    0.819790
     4  O   -0.624709
     5  C    0.096137
     6  C   -0.471405
     7  C   -0.329758
     8  C   -0.325482
     9  C   -0.350890
    10  C   -0.178282
    11  C   -0.174137
    12  C   -0.355183
    13  C   -0.310890
    14  C   -0.329334
    15  C    0.091152
    16  C   -0.509654
    17  N   -0.787572
    18  C    0.767232
    19  C   -0.595749
    20  O   -0.613746
    21  C    0.820381
    22  O   -0.639112
    23  N   -0.806157
    24  C   -0.275522
    25  N   -0.842495
    26  C    0.744624
    27  C   -0.588599
    28  O   -0.591600
    29  H    0.185803
    30  H    0.197889
    31  H    0.161253
    32  H    0.389859
    33  H    0.198579
    34  H    0.143357
    35  H    0.212497
    36  H    0.163477
    37  H    0.179830
    38  H    0.164695
    39  H    0.197172
    40  H    0.188104
    41  H    0.177693
    42  H    0.172283
    43  H    0.171810
    44  H    0.178447
    45  H    0.161862
    46  H    0.152475
    47  H    0.199070
    48  H    0.173650
    49  H    0.184542
    50  H    0.183811
    51  H    0.148234
    52  H    0.227000
    53  H    0.389806
    54  H    0.211465
    55  H    0.209662
    56  H    0.176449
    57  H    0.395472
    58  H    0.164829
    59  H    0.199086
    60  H    0.185554
    61  H    0.382231
    62  H    0.218532
    63  H    0.176932
    64  H    0.201099
 Sum of Mulliken atomic charges =   0.00000

 Dipole moment (field-independent basis, Debye):
    X=             -1.3420    Y=             -4.0890    Z=              6.8623  Tot=              8.1002
 Quadrupole moment (field-independent basis, Debye-Ang):
   XX=           -210.2122   YY=           -154.8930   ZZ=           -171.7574
   XY=              8.7086   XZ=            -24.2220   YZ=             10.9755

 Normal termination of Gaussian 09 at Thu Dec  5 17:28:32 2019.
