 Gaussian 09, Revision A.02,
 Gaussian 09:  EM64L-G09RevA.02 11-Jun-2009

 ---------------------------------
 #SP HF/6-31G* Geom=(ModRedundant)
 ---------------------------------

 ------------
 paramfit run
 ------------
 Symbolic Z-matrix:
 Charge =  0 Multiplicity = 1

                         Standard orientation:
 ---------------------------------------------------------------------
 Center     Atomic      Atomic             Coordinates (Angstroms)
 Number     Number       Type             X           Y           Z
 ---------------------------------------------------------------------
      1          6    20001001       -5.083436    3.205428   -0.153871
      2          7    20001014       -4.938808    1.797642    0.153484
      3          6    20001002       -4.954516    0.883694   -0.844795
      4          8    20001024       -4.858968    1.189364   -2.001161
      5          6    90000001       -4.963586   -0.595151   -0.417804
      6          6    90000002       -5.442788   -1.463514   -1.585774
      7          6    90000002       -3.550043   -1.020809    0.064185
      8          6    90000002       -2.368405   -0.934809   -0.918654
      9          6    90000002       -1.186184   -0.021709   -0.537558
     10          6    20001004       -0.554743   -0.356812    0.793332
     11          6    20001004        0.537509   -1.071413    1.010328
     12          6    90000002        1.423303   -1.730292   -0.019722
     13          6    90000002        2.732815   -0.973629   -0.306440
     14          6    90000002        3.625425   -0.842963    0.934965
     15          6    90000002        5.050466   -0.260394    0.749181
     16          6    90000002        5.704125   -0.179252    2.138281
     17          7    20001014        5.816047   -1.167507   -0.094953
     18          6    20001002        7.061766   -0.840607   -0.547034
     19          6    20001001        7.564755   -1.684277   -1.695958
     20          8    20001024        7.714232    0.047584   -0.073170
     21          6    20001002        4.935285    1.097760    0.020567
     22          8    20001024        4.847986    1.137344   -1.177239
     23          7    20001014        4.834232    2.207006    0.784336
     24          6    20001001        4.774589    3.515619    0.166132
     25          7    20001014       -5.829616   -0.784938    0.754972
     26          6    20001002       -7.162594   -0.497323    0.765903
     27          6    20001001       -7.937819   -1.086013    1.926329
     28          8    20001024       -7.684385    0.181414   -0.072661
     29          1    20001035       -6.065352    3.432230   -0.553060
     30          1    20001035       -4.341035    3.498212   -0.881773
     31          1    20001035       -4.927772    3.775129    0.753632
     32          1    20001029       -5.256712    1.489957    1.042615
     33          1    20001034       -4.827381   -1.316785   -2.460232
     34          1    20001034       -5.405219   -2.509720   -1.297193
     35          1    20001034       -6.457918   -1.208241   -1.852742
     36          1    20001034       -3.643521   -2.062908    0.361693
     37          1    20001034       -3.313024   -0.466939    0.967141
     38          1    20001034       -1.980488   -1.944011   -1.021852
     39          1    20001034       -2.724312   -0.646984   -1.902453
     40          1    20001034       -1.504209    1.012762   -0.527911
     41          1    20001034       -0.451461   -0.101420   -1.331072
     42          1    20001033       -1.062704    0.043538    1.655775
     43          1    20001033        0.844433   -1.203695    2.036028
     44          1    20001034        0.888771   -1.849190   -0.954391
     45          1    20001034        1.662798   -2.736310    0.322569
     46          1    20001034        3.251934   -1.501097   -1.101843
     47          1    20001034        2.500187    0.006476   -0.701547
     48          1    20001034        3.748454   -1.820764    1.395729
     49          1    20001034        3.118507   -0.219064    1.661693
     50          1    20001034        5.833037   -1.185236    2.520328
     51          1    20001034        5.072194    0.356012    2.839377
     52          1    20001034        6.674738    0.291713    2.095399
     53          1    20001029        5.277699   -1.719227   -0.723044
     54          1    20001034        8.641509   -1.620644   -1.736110
     55          1    20001034        7.157637   -1.287072   -2.620949
     56          1    20001034        7.260412   -2.721314   -1.604790
     57          1    20001029        5.146756    2.163004    1.725454
     58          1    20001035        4.574743    4.251595    0.933805
     59          1    20001035        3.976428    3.539455   -0.561189
     60          1    20001035        5.703461    3.766590   -0.335828
     61          1    20001029       -5.517969   -1.463684    1.413551
     62          1    20001034       -8.841613   -0.511887    2.069539
     63          1    20001034       -7.360414   -1.093831    2.843985
     64          1    20001034       -8.212037   -2.108911    1.689080
 ---------------------------------------------------------------------

 SCF Done:  E(RHF) =  -1295.61909917     A.U. after   14 cycles

 The electronic state is 1-A.
 Alpha  occ. eigenvalues --  -20.53565 -20.52177 -20.51773 -20.51652 -15.59521
 Alpha  occ. eigenvalues --  -15.58085 -15.57671 -15.57210 -11.35892 -11.34383
 Alpha  occ. eigenvalues --  -11.33858 -11.33623 -11.28981 -11.28748 -11.25175
 Alpha  occ. eigenvalues --  -11.24670 -11.24304 -11.23899 -11.23621 -11.22871
 Alpha  occ. eigenvalues --  -11.22754 -11.22616 -11.22616 -11.22583 -11.22533
 Alpha  occ. eigenvalues --  -11.22420 -11.21966 -11.20790  -1.40493  -1.39521
 Alpha  occ. eigenvalues --   -1.38438  -1.38247  -1.25325  -1.23703  -1.22796
 Alpha  occ. eigenvalues --   -1.21810  -1.11066  -1.09344  -1.07407  -1.04440
 Alpha  occ. eigenvalues --   -1.01346  -0.99390  -0.98853  -0.95300  -0.95292
 Alpha  occ. eigenvalues --   -0.94738  -0.92379  -0.87256  -0.85821  -0.83021
 Alpha  occ. eigenvalues --   -0.81510  -0.79654  -0.78876  -0.77045  -0.76927
 Alpha  occ. eigenvalues --   -0.72194  -0.71436  -0.71087  -0.69087  -0.68142
 Alpha  occ. eigenvalues --   -0.66985  -0.65551  -0.64664  -0.63981  -0.63892
 Alpha  occ. eigenvalues --   -0.62600  -0.62232  -0.62043  -0.61574  -0.61298
 Alpha  occ. eigenvalues --   -0.60570  -0.60327  -0.59425  -0.58885  -0.58612
 Alpha  occ. eigenvalues --   -0.57943  -0.57883  -0.56755  -0.56523  -0.56265
 Alpha  occ. eigenvalues --   -0.55391  -0.54985  -0.54802  -0.54519  -0.54249
 Alpha  occ. eigenvalues --   -0.53279  -0.52865  -0.52286  -0.52254  -0.51622
 Alpha  occ. eigenvalues --   -0.51165  -0.50453  -0.49933  -0.49335  -0.48675
 Alpha  occ. eigenvalues --   -0.48066  -0.47499  -0.46629  -0.44973  -0.42740
 Alpha  occ. eigenvalues --   -0.41895  -0.41672  -0.41197  -0.39133  -0.39003
 Alpha  occ. eigenvalues --   -0.38461  -0.37998  -0.34998
 Alpha virt. eigenvalues --    0.16983   0.18857   0.19497   0.20051   0.20448
 Alpha virt. eigenvalues --    0.21436   0.21785   0.22931   0.23552   0.23936
 Alpha virt. eigenvalues --    0.24821   0.25326   0.26175   0.26961   0.27382

 Mulliken atomic charges:
              1
     1  C   -0.278525
     2  N   -0.784220
     3  C    0.819166
     4  O   -0.623992
     5  C    0.094809
     6  C   -0.470807
     7  C   -0.328884
     8  C   -0.327678
     9  C   -0.350150
    10  C   -0.178210
    11  C   -0.173667
    12  C   -0.355498
    13  C   -0.310927
    14  C   -0.329358
    15  C    0.091168
    16  C   -0.509664
    17  N   -0.787558
    18  C    0.767207
    19  C   -0.595759
    20  O   -0.613748
    21  C    0.820338
    22  O   -0.639087
    23  N   -0.806207
    24  C   -0.275474
    25  N   -0.842569
    26  C    0.744674
    27  C   -0.588571
    28  O   -0.591608
    29  H    0.185582
    30  H    0.198135
    31  H    0.161243
    32  H    0.389871
    33  H    0.198614
    34  H    0.143214
    35  H    0.212309
    36  H    0.164265
    37  H    0.178178
    38  H    0.164934
    39  H    0.201889
    40  H    0.183397
    41  H    0.178576
    42  H    0.171358
    43  H    0.172096
    44  H    0.178870
    45  H    0.162193
    46  H    0.152770
    47  H    0.198791
    48  H    0.173795
    49  H    0.184387
    50  H    0.183907
    51  H    0.148178
    52  H    0.227059
    53  H    0.389841
    54  H    0.211518
    55  H    0.209686
    56  H    0.176528
    57  H    0.395520
    58  H    0.164805
    59  H    0.198837
    60  H    0.185682
    61  H    0.382247
    62  H    0.218541
    63  H    0.176917
    64  H    0.201066
 Sum of Mulliken atomic charges =   0.00000

 Dipole moment (field-independent basis, Debye):
    X=             -1.0064    Y=             -3.8201    Z=              6.9485  Tot=              7.9930
 Quadrupole moment (field-independent basis, Debye-Ang):
   XX=           -214.5099   YY=           -155.2292   ZZ=           -170.7433
   XY=              5.9028   XZ=            -26.0167   YZ=             10.8633

 Normal termination of Gaussian 09 at Thu Dec  5 17:33:42 2019.
