 Gaussian 09, Revision A.02,
 Gaussian 09:  EM64L-G09RevA.02 11-Jun-2009

 ---------------------------------
 #SP HF/6-31G* Geom=(ModRedundant)
 ---------------------------------

 ------------
 paramfit run
 ------------
 Symbolic Z-matrix:
 Charge =  0 Multiplicity = 1

                         Standard orientation:
 ---------------------------------------------------------------------
 Center     Atomic      Atomic             Coordinates (Angstroms)
 Number     Number       Type             X           Y           Z
 ---------------------------------------------------------------------
      1          6    20001001       -6.803168    2.473429    1.366938
      2          7    20001014       -6.100228    1.230363    1.126297
      3          6    20001002       -5.010343    1.215640    0.323774
      4          8    20001024       -4.454499    2.219079   -0.028211
      5          6    90000001       -4.426425   -0.168675   -0.011032
      6          6    90000002       -3.533826   -0.062587   -1.251941
      7          6    90000002       -3.641675   -0.726483    1.207418
      8          6    90000002       -2.429117    0.059374    1.738235
      9          6    90000002       -1.060274   -0.649779    1.735255
     10          6    20001004       -0.629211   -1.148416    0.375909
     11          6    20001004        0.199846   -0.561942   -0.472306
     12          6    90000002        0.920073    0.752731   -0.291572
     13          6    90000002        2.405204    0.614540    0.089025
     14          6    90000002        3.223966   -0.123995   -0.978265
     15          6    90000002        4.764195   -0.177634   -0.806615
     16          6    90000002        5.331589   -1.018250   -1.961986
     17          7    20001014        5.287878    1.178897   -0.890939
     18          6    20001002        6.599310    1.454505   -0.631625
     19          6    20001001        6.907595    2.913746   -0.385900
     20          8    20001024        7.448741    0.607985   -0.599810
     21          6    20001002        5.083115   -0.733124    0.599957
     22          8    20001024        5.080831   -0.003278    1.554551
     23          7    20001014        5.257518   -2.067219    0.717246
     24          6    20001001        5.609030   -2.647401    1.997102
     25          7    20001014       -5.506745   -1.140455   -0.234601
     26          6    20001002       -6.453316   -1.009285   -1.207467
     27          6    20001001       -7.247503   -2.264190   -1.505124
     28          8    20001024       -6.653845    0.024709   -1.779118
     29          1    20001035       -7.271786    2.852627    0.466074
     30          1    20001035       -6.112320    3.218219    1.734007
     31          1    20001035       -7.563560    2.300707    2.118153
     32          1    20001029       -6.628986    0.391006    1.172988
     33          1    20001034       -2.748949    0.664168   -1.107966
     34          1    20001034       -3.087230   -1.030438   -1.459432
     35          1    20001034       -4.114928    0.247756   -2.108056
     36          1    20001034       -3.279018   -1.704638    0.899338
     37          1    20001034       -4.343013   -0.903345    2.016817
     38          1    20001034       -2.339150    0.943862    1.114371
     39          1    20001034       -2.630268    0.418301    2.742269
     40          1    20001034       -1.070708   -1.479820    2.429724
     41          1    20001034       -0.333578    0.055521    2.122940
     42          1    20001033       -1.051697   -2.094818    0.079357
     43          1    20001033        0.395951   -1.072056   -1.402406
     44          1    20001034        0.429368    1.348849    0.468242
     45          1    20001034        0.842898    1.319797   -1.218433
     46          1    20001034        2.798267    1.613749    0.254719
     47          1    20001034        2.484659    0.102080    1.038710
     48          1    20001034        3.036461    0.324461   -1.951540
     49          1    20001034        2.874035   -1.147998   -1.035845
     50          1    20001034        5.146290   -0.496928   -2.893902
     51          1    20001034        4.838309   -1.982621   -2.025581
     52          1    20001034        6.396880   -1.163851   -1.863543
     53          1    20001029        4.652419    1.896592   -0.626710
     54          1    20001034        7.958352    3.087306   -0.561535
     55          1    20001034        6.685138    3.144341    0.651628
     56          1    20001034        6.315889    3.567915   -1.017035
     57          1    20001029        5.489049   -2.586990   -0.096105
     58          1    20001035        5.582431   -3.725385    1.906756
     59          1    20001035        4.894581   -2.338835    2.746086
     60          1    20001035        6.598588   -2.340575    2.320193
     61          1    20001029       -5.323949   -2.066349    0.082973
     62          1    20001034       -8.183157   -1.983997   -1.966660
     63          1    20001034       -7.440700   -2.849098   -0.612875
     64          1    20001034       -6.689746   -2.881809   -2.201727
 ---------------------------------------------------------------------

 SCF Done:  E(RHF) =  -1295.61752030     A.U. after   14 cycles

 The electronic state is 1-A.
 Alpha  occ. eigenvalues --  -20.53487 -20.52056 -20.51731 -20.51543 -15.59444
 Alpha  occ. eigenvalues --  -15.58067 -15.57533 -15.57075 -11.35823 -11.34256
 Alpha  occ. eigenvalues --  -11.33807 -11.33503 -11.28868 -11.28628 -11.25226
 Alpha  occ. eigenvalues --  -11.24559 -11.24264 -11.23873 -11.23461 -11.22758
 Alpha  occ. eigenvalues --  -11.22700 -11.22579 -11.22519 -11.22476 -11.22448
 Alpha  occ. eigenvalues --  -11.22441 -11.21841 -11.20376  -1.40413  -1.39438
 Alpha  occ. eigenvalues --   -1.38329  -1.38169  -1.25235  -1.23575  -1.22776
 Alpha  occ. eigenvalues --   -1.21684  -1.11054  -1.09265  -1.07246  -1.04336
 Alpha  occ. eigenvalues --   -1.01279  -0.99316  -0.98754  -0.95289  -0.95125
 Alpha  occ. eigenvalues --   -0.94691  -0.92218  -0.87021  -0.85656  -0.83062
 Alpha  occ. eigenvalues --   -0.81497  -0.79564  -0.78792  -0.76978  -0.76801
 Alpha  occ. eigenvalues --   -0.72195  -0.71365  -0.70899  -0.69014  -0.68084
 Alpha  occ. eigenvalues --   -0.66799  -0.65727  -0.64545  -0.63893  -0.63624
 Alpha  occ. eigenvalues --   -0.62754  -0.62317  -0.61916  -0.61475  -0.61269
 Alpha  occ. eigenvalues --   -0.60854  -0.59529  -0.59351  -0.58873  -0.58704
 Alpha  occ. eigenvalues --   -0.58009  -0.57168  -0.56895  -0.56458  -0.55945
 Alpha  occ. eigenvalues --   -0.55367  -0.55088  -0.54828  -0.54329  -0.53952
 Alpha  occ. eigenvalues --   -0.53146  -0.52552  -0.52289  -0.52000  -0.51851
 Alpha  occ. eigenvalues --   -0.51029  -0.50244  -0.49840  -0.49180  -0.48744
 Alpha  occ. eigenvalues --   -0.48540  -0.46808  -0.46477  -0.44947  -0.42636
 Alpha  occ. eigenvalues --   -0.41849  -0.41588  -0.41080  -0.39022  -0.38935
 Alpha  occ. eigenvalues --   -0.38409  -0.37886  -0.34842
 Alpha virt. eigenvalues --    0.16774   0.18950   0.19594   0.20307   0.20702
 Alpha virt. eigenvalues --    0.21529   0.21878   0.22936   0.23515   0.23680
 Alpha virt. eigenvalues --    0.24848   0.25678   0.26449   0.26885   0.27279

 Mulliken atomic charges:
              1
     1  C   -0.278332
     2  N   -0.782458
     3  C    0.818085
     4  O   -0.624192
     5  C    0.091867
     6  C   -0.464156
     7  C   -0.328363
     8  C   -0.329634
     9  C   -0.351831
    10  C   -0.173217
    11  C   -0.167917
    12  C   -0.358286
    13  C   -0.312007
    14  C   -0.329481
    15  C    0.091030
    16  C   -0.509790
    17  N   -0.787236
    18  C    0.767087
    19  C   -0.595806
    20  O   -0.614375
    21  C    0.820257
    22  O   -0.639579
    23  N   -0.806348
    24  C   -0.274901
    25  N   -0.842548
    26  C    0.744944
    27  C   -0.588569
    28  O   -0.591606
    29  H    0.184684
    30  H    0.198108
    31  H    0.161330
    32  H    0.389734
    33  H    0.201450
    34  H    0.142498
    35  H    0.207388
    36  H    0.157393
    37  H    0.181520
    38  H    0.202123
    39  H    0.174142
    40  H    0.165544
    41  H    0.180673
    42  H    0.167570
    43  H    0.174084
    44  H    0.182622
    45  H    0.168881
    46  H    0.154188
    47  H    0.195461
    48  H    0.176121
    49  H    0.183029
    50  H    0.185089
    51  H    0.147746
    52  H    0.226615
    53  H    0.390534
    54  H    0.211184
    55  H    0.209145
    56  H    0.177800
    57  H    0.395744
    58  H    0.164325
    59  H    0.197260
    60  H    0.185760
    61  H    0.381830
    62  H    0.218400
    63  H    0.176986
    64  H    0.200401
 Sum of Mulliken atomic charges =   0.00000

 Dipole moment (field-independent basis, Debye):
    X=             -3.2937    Y=             -5.9296    Z=              0.9059  Tot=              6.8432
 Quadrupole moment (field-independent basis, Debye-Ang):
   XX=           -190.6165   YY=           -155.3841   ZZ=           -175.3437
   XY=             24.0983   XZ=            -23.4925   YZ=              3.0860

 Normal termination of Gaussian 09 at Thu Dec  5 16:29:48 2019.
