 Gaussian 09, Revision A.02,
 Gaussian 09:  EM64L-G09RevA.02 11-Jun-2009

 ---------------------------------
 #SP HF/6-31G* Geom=(ModRedundant)
 ---------------------------------

 ------------
 paramfit run
 ------------
 Symbolic Z-matrix:
 Charge =  0 Multiplicity = 1

                         Standard orientation:
 ---------------------------------------------------------------------
 Center     Atomic      Atomic             Coordinates (Angstroms)
 Number     Number       Type             X           Y           Z
 ---------------------------------------------------------------------
      1          6    20001001        2.935172    2.230687   -1.402269
      2          7    20001014        3.621338    1.004998   -1.049980
      3          6    20001002        3.775333    0.667829    0.251831
      4          8    20001024        3.178668    1.217659    1.135813
      5          6    90000001        4.658800   -0.559191    0.540438
      6          6    90000002        5.109431   -0.533997    2.004726
      7          6    90000002        3.886451   -1.864259    0.205961
      8          6    90000002        2.580172   -2.173146    0.959526
      9          6    90000002        1.515259   -1.060690    1.030494
     10          6    20001004        1.068151   -0.550660   -0.319410
     11          6    20001004       -0.016416   -0.897332   -0.993421
     12          6    90000002       -1.076022   -1.890352   -0.580019
     13          6    90000002       -2.372232   -1.250437   -0.050950
     14          6    90000002       -3.066203   -0.366954   -1.096308
     15          6    90000002       -4.470876    0.195714   -0.757270
     16          6    90000002       -4.909808    1.087478   -1.930107
     17          7    20001014       -5.397502   -0.920017   -0.622966
     18          6    20001002       -6.677148   -0.735605   -0.185295
     19          6    20001001       -7.385511   -1.993765    0.261984
     20          8    20001024       -7.206457    0.340533   -0.155291
     21          6    20001002       -4.392773    0.926504    0.602352
     22          8    20001024       -4.479190    0.307683    1.628763
     23          7    20001014       -4.123876    2.249870    0.582912
     24          6    20001001       -4.087112    3.005191    1.818364
     25          7    20001014        5.823114   -0.575231   -0.357084
     26          6    20001002        6.755999    0.418331   -0.404325
     27          6    20001001        8.043091    0.058362   -1.117021
     28          8    20001024        6.570371    1.502533    0.071268
     29          1    20001035        3.485778    3.107571   -1.081555
     30          1    20001035        1.959863    2.249219   -0.938425
     31          1    20001035        2.812131    2.261145   -2.477577
     32          1    20001029        4.313362    0.672503   -1.679928
     33          1    20001034        4.263096   -0.500325    2.673692
     34          1    20001034        5.694738   -1.423507    2.217855
     35          1    20001034        5.714442    0.339968    2.197269
     36          1    20001034        4.578068   -2.676519    0.418375
     37          1    20001034        3.704381   -1.891893   -0.863790
     38          1    20001034        2.129426   -3.024034    0.457094
     39          1    20001034        2.803242   -2.503003    1.968886
     40          1    20001034        1.884625   -0.230165    1.617999
     41          1    20001034        0.669509   -1.461685    1.577982
     42          1    20001033        1.716596    0.183072   -0.770266
     43          1    20001033       -0.176896   -0.421088   -1.947988
     44          1    20001034       -0.690454   -2.555768    0.182887
     45          1    20001034       -1.314987   -2.518372   -1.437386
     46          1    20001034       -3.028528   -2.053141    0.273575
     47          1    20001034       -2.149102   -0.671497    0.835544
     48          1    20001034       -3.171361   -0.922304   -2.025858
     49          1    20001034       -2.426966    0.481074   -1.312119
     50          1    20001034       -5.033724    0.467166   -2.810129
     51          1    20001034       -4.155412    1.832341   -2.161295
     52          1    20001034       -5.850490    1.577482   -1.728233
     53          1    20001029       -4.985942   -1.783494   -0.351420
     54          1    20001034       -8.451826   -1.829642    0.228885
     55          1    20001034       -7.097584   -2.207037    1.287039
     56          1    20001034       -7.125442   -2.849020   -0.352252
     57          1    20001029       -4.297639    2.755302   -0.253542
     58          1    20001035       -3.739444    4.006564    1.600878
     59          1    20001035       -3.403431    2.537617    2.511603
     60          1    20001035       -5.064954    3.060481    2.285825
     61          1    20001029        6.120924   -1.476509   -0.658009
     62          1    20001034        8.528753    0.967270   -1.441048
     63          1    20001034        7.872923   -0.589231   -1.969791
     64          1    20001034        8.701114   -0.457397   -0.425067
 ---------------------------------------------------------------------

 SCF Done:  E(RHF) =  -1295.60399551     A.U. after   14 cycles

 The electronic state is 1-A.
 Alpha  occ. eigenvalues --  -20.53833 -20.52306 -20.51797 -20.51251 -15.59811
 Alpha  occ. eigenvalues --  -15.57814 -15.57555 -15.57230 -11.36143 -11.34311
 Alpha  occ. eigenvalues --  -11.34006 -11.33339 -11.29297 -11.28217 -11.25272
 Alpha  occ. eigenvalues --  -11.24638 -11.24491 -11.24103 -11.22958 -11.22539
 Alpha  occ. eigenvalues --  -11.22312 -11.21877 -11.21805 -11.21506 -11.21167
 Alpha  occ. eigenvalues --  -11.21129 -11.20647 -11.20277  -1.40813  -1.39444
 Alpha  occ. eigenvalues --   -1.39075  -1.37789  -1.25693  -1.23248  -1.22642
 Alpha  occ. eigenvalues --   -1.22269  -1.10286  -1.09073  -1.06780  -1.03900
 Alpha  occ. eigenvalues --   -1.01000  -0.99231  -0.98507  -0.95954  -0.94847
 Alpha  occ. eigenvalues --   -0.94283  -0.91830  -0.87180  -0.85378  -0.82674
 Alpha  occ. eigenvalues --   -0.81206  -0.79190  -0.78610  -0.77741  -0.76551
 Alpha  occ. eigenvalues --   -0.71581  -0.71371  -0.70681  -0.69163  -0.67949
 Alpha  occ. eigenvalues --   -0.67001  -0.66032  -0.64520  -0.63838  -0.63542
 Alpha  occ. eigenvalues --   -0.62854  -0.61976  -0.61479  -0.61243  -0.60962
 Alpha  occ. eigenvalues --   -0.60520  -0.60086  -0.59164  -0.58874  -0.58388
 Alpha  occ. eigenvalues --   -0.58201  -0.57394  -0.56232  -0.56105  -0.55911
 Alpha  occ. eigenvalues --   -0.55330  -0.54884  -0.54519  -0.54439  -0.53857
 Alpha  occ. eigenvalues --   -0.53361  -0.52639  -0.52516  -0.51753  -0.51422
 Alpha  occ. eigenvalues --   -0.51110  -0.50280  -0.49520  -0.48790  -0.48384
 Alpha  occ. eigenvalues --   -0.47885  -0.46249  -0.45841  -0.43800  -0.43087
 Alpha  occ. eigenvalues --   -0.42212  -0.41184  -0.40802  -0.39657  -0.38526
 Alpha  occ. eigenvalues --   -0.38178  -0.37939  -0.33495
 Alpha virt. eigenvalues --    0.17773   0.18659   0.19287   0.19959   0.20256
 Alpha virt. eigenvalues --    0.21906   0.22309   0.23606   0.23701   0.24255
 Alpha virt. eigenvalues --    0.25742   0.26008   0.26853   0.27105   0.27768

 Mulliken atomic charges:
              1
     1  C   -0.293223
     2  N   -0.790979
     3  C    0.815126
     4  O   -0.626741
     5  C    0.102494
     6  C   -0.471451
     7  C   -0.336536
     8  C   -0.300966
     9  C   -0.413028
    10  C   -0.171728
    11  C   -0.196796
    12  C   -0.349766
    13  C   -0.309420
    14  C   -0.328347
    15  C    0.090799
    16  C   -0.509462
    17  N   -0.787707
    18  C    0.767395
    19  C   -0.595556
    20  O   -0.614283
    21  C    0.821160
    22  O   -0.640025
    23  N   -0.805361
    24  C   -0.275369
    25  N   -0.842607
    26  C    0.744913
    27  C   -0.588819
    28  O   -0.591955
    29  H    0.194840
    30  H    0.197620
    31  H    0.167738
    32  H    0.395389
    33  H    0.196873
    34  H    0.146422
    35  H    0.212558
    36  H    0.161790
    37  H    0.181520
    38  H    0.166084
    39  H    0.165700
    40  H    0.253518
    41  H    0.168853
    42  H    0.222556
    43  H    0.162632
    44  H    0.174175
    45  H    0.155838
    46  H    0.148022
    47  H    0.199718
    48  H    0.171882
    49  H    0.185801
    50  H    0.182775
    51  H    0.148467
    52  H    0.225770
    53  H    0.389867
    54  H    0.210466
    55  H    0.209174
    56  H    0.175997
    57  H    0.394921
    58  H    0.165176
    59  H    0.200553
    60  H    0.183526
    61  H    0.383540
    62  H    0.218968
    63  H    0.177722
    64  H    0.201787
 Sum of Mulliken atomic charges =   0.00000

 Dipole moment (field-independent basis, Debye):
    X=              5.1741    Y=             -4.2983    Z=             -5.3065  Tot=              8.5678
 Quadrupole moment (field-independent basis, Debye-Ang):
   XX=           -174.0289   YY=           -160.2083   ZZ=           -171.9703
   XY=            -15.9254   XZ=             -7.9937   YZ=             -5.8357

 Normal termination of Gaussian 09 at Thu Dec  5 18:14:31 2019.
