 Gaussian 09, Revision A.02,
 Gaussian 09:  EM64L-G09RevA.02 11-Jun-2009

 ---------------------------------
 #SP HF/6-31G* Geom=(ModRedundant)
 ---------------------------------

 ------------
 paramfit run
 ------------
 Symbolic Z-matrix:
 Charge =  0 Multiplicity = 1

                         Standard orientation:
 ---------------------------------------------------------------------
 Center     Atomic      Atomic             Coordinates (Angstroms)
 Number     Number       Type             X           Y           Z
 ---------------------------------------------------------------------
      1          6    20001001        2.709644    1.657393   -2.007016
      2          7    20001014        3.503619    0.623584   -1.376073
      3          6    20001002        3.519450    0.513458   -0.027099
      4          8    20001024        2.734378    1.086559    0.676436
      5          6    90000001        4.515939   -0.499624    0.564560
      6          6    90000002        4.749431   -0.184505    2.045783
      7          6    90000002        3.987154   -1.946452    0.367894
      8          6    90000002        2.644147   -2.344149    1.006491
      9          6    90000002        1.580753   -1.241659    1.180688
     10          6    20001004        1.202725   -0.543581   -0.104638
     11          6    20001004        0.151699   -0.781622   -0.872387
     12          6    90000002       -0.930387   -1.811739   -0.653982
     13          6    90000002       -2.249051   -1.238735   -0.104110
     14          6    90000002       -2.887465   -0.210882   -1.047962
     15          6    90000002       -4.305309    0.313282   -0.702102
     16          6    90000002       -4.682659    1.364524   -1.758486
     17          7    20001014       -5.241174   -0.800729   -0.770435
     18          6    20001002       -6.540292   -0.666148   -0.373904
     19          6    20001001       -7.274132   -1.967121   -0.142056
     20          8    20001024       -7.066836    0.400620   -0.219302
     21          6    20001002       -4.292161    0.846222    0.748596
     22          8    20001024       -4.431352    0.091058    1.672869
     23          7    20001014       -4.018208    2.156515    0.927655
     24          6    20001001       -4.040120    2.731508    2.256981
     25          7    20001014        5.785119   -0.463162   -0.176578
     26          6    20001002        6.568016    0.648383   -0.282453
     27          6    20001001        7.979572    0.396442   -0.770463
     28          8    20001024        6.168653    1.747664   -0.021241
     29          1    20001035        3.082555    2.648907   -1.777264
     30          1    20001035        1.686057    1.588844   -1.668942
     31          1    20001035        2.735163    1.506977   -3.078966
     32          1    20001029        4.316408    0.315708   -1.856565
     33          1    20001034        3.821490   -0.187059    2.597012
     34          1    20001034        5.417209   -0.927155    2.472142
     35          1    20001034        5.194007    0.793728    2.156860
     36          1    20001034        4.748502   -2.596839    0.792824
     37          1    20001034        3.962110   -2.162157   -0.695650
     38          1    20001034        2.215982   -3.111884    0.368623
     39          1    20001034        2.815872   -2.813982    1.969373
     40          1    20001034        1.923359   -0.505132    1.895890
     41          1    20001034        0.707601   -1.706495    1.624948
     42          1    20001033        1.875144    0.239241   -0.416337
     43          1    20001033        0.040263   -0.175134   -1.757552
     44          1    20001034       -0.585285   -2.581076    0.026086
     45          1    20001034       -1.128717   -2.311409   -1.601393
     46          1    20001034       -2.923287   -2.072129    0.072618
     47          1    20001034       -2.068142   -0.791568    0.864468
     48          1    20001034       -2.948336   -0.629887   -2.050091
     49          1    20001034       -2.235496    0.652384   -1.111660
     50          1    20001034       -4.764934    0.874473   -2.721638
     51          1    20001034       -3.915257    2.126609   -1.846241
     52          1    20001034       -5.630538    1.831142   -1.535922
     53          1    20001029       -4.846451   -1.697831   -0.602766
     54          1    20001034       -8.336947   -1.789077   -0.203585
     55          1    20001034       -7.038016   -2.324372    0.855814
     56          1    20001034       -6.986838   -2.730844   -0.856598
     57          1    20001029       -4.148660    2.775545    0.162742
     58          1    20001035       -3.678766    3.749827    2.198937
     59          1    20001035       -3.393162    2.164740    2.910315
     60          1    20001035       -5.039715    2.730989    2.679551
     61          1    20001029        6.244577   -1.339951   -0.284686
     62          1    20001034        8.374524    1.312609   -1.184738
     63          1    20001034        8.022122   -0.389938   -1.515678
     64          1    20001034        8.599664    0.101578    0.069979
 ---------------------------------------------------------------------

 SCF Done:  E(RHF) =  -1295.53984091     A.U. after   15 cycles

 The electronic state is 1-A.
 Alpha  occ. eigenvalues --  -20.53983 -20.52120 -20.51571 -20.50973 -15.59999
 Alpha  occ. eigenvalues --  -15.58446 -15.57285 -15.56959 -11.36295 -11.34749
 Alpha  occ. eigenvalues --  -11.33780 -11.33058 -11.29560 -11.27892 -11.25600
 Alpha  occ. eigenvalues --  -11.24613 -11.24422 -11.24185 -11.22517 -11.22516
 Alpha  occ. eigenvalues --  -11.22129 -11.21313 -11.21261 -11.21226 -11.21093
 Alpha  occ. eigenvalues --  -11.20462 -11.19765 -11.18436  -1.41421  -1.40555
 Alpha  occ. eigenvalues --   -1.38826  -1.37534  -1.25960  -1.23209  -1.22970
 Alpha  occ. eigenvalues --   -1.22001  -1.10112  -1.08771  -1.06436  -1.03701
 Alpha  occ. eigenvalues --   -1.00833  -0.99059  -0.98271  -0.96399  -0.94722
 Alpha  occ. eigenvalues --   -0.94086  -0.91625  -0.87076  -0.85171  -0.82828
 Alpha  occ. eigenvalues --   -0.81289  -0.79031  -0.78931  -0.78232  -0.76281
 Alpha  occ. eigenvalues --   -0.72233  -0.71345  -0.70722  -0.69541  -0.68000
 Alpha  occ. eigenvalues --   -0.66918  -0.66365  -0.64273  -0.63777  -0.63259
 Alpha  occ. eigenvalues --   -0.63106  -0.62223  -0.61228  -0.61000  -0.60830
 Alpha  occ. eigenvalues --   -0.60514  -0.60075  -0.59664  -0.58645  -0.58156
 Alpha  occ. eigenvalues --   -0.57936  -0.57215  -0.56310  -0.55780  -0.55594
 Alpha  occ. eigenvalues --   -0.55142  -0.55036  -0.54533  -0.54159  -0.53688
 Alpha  occ. eigenvalues --   -0.53139  -0.52950  -0.52388  -0.52253  -0.51438
 Alpha  occ. eigenvalues --   -0.50622  -0.49350  -0.49015  -0.48179  -0.47988
 Alpha  occ. eigenvalues --   -0.47411  -0.46249  -0.45290  -0.43844  -0.42941
 Alpha  occ. eigenvalues --   -0.40916  -0.40698  -0.40563  -0.39778  -0.38925
 Alpha  occ. eigenvalues --   -0.38243  -0.37666  -0.32124
 Alpha virt. eigenvalues --    0.16698   0.18587   0.19462   0.20206   0.21209
 Alpha virt. eigenvalues --    0.22199   0.22765   0.23659   0.24010   0.24095
 Alpha virt. eigenvalues --    0.25357   0.26359   0.26903   0.27080   0.27565

 Mulliken atomic charges:
              1
     1  C   -0.291164
     2  N   -0.772252
     3  C    0.778878
     4  O   -0.621837
     5  C    0.104400
     6  C   -0.468969
     7  C   -0.334662
     8  C   -0.304891
     9  C   -0.396939
    10  C   -0.090040
    11  C   -0.229931
    12  C   -0.347077
    13  C   -0.307209
    14  C   -0.327437
    15  C    0.090598
    16  C   -0.509496
    17  N   -0.787770
    18  C    0.767438
    19  C   -0.595402
    20  O   -0.614840
    21  C    0.821650
    22  O   -0.640907
    23  N   -0.804606
    24  C   -0.274732
    25  N   -0.843309
    26  C    0.744281
    27  C   -0.588825
    28  O   -0.591284
    29  H    0.192946
    30  H    0.211455
    31  H    0.170719
    32  H    0.399693
    33  H    0.194823
    34  H    0.148078
    35  H    0.213413
    36  H    0.163442
    37  H    0.182904
    38  H    0.169939
    39  H    0.164419
    40  H    0.221695
    41  H    0.170611
    42  H    0.195923
    43  H    0.151349
    44  H    0.168317
    45  H    0.151351
    46  H    0.144222
    47  H    0.197292
    48  H    0.170653
    49  H    0.186844
    50  H    0.182156
    51  H    0.148828
    52  H    0.224760
    53  H    0.390090
    54  H    0.209758
    55  H    0.208791
    56  H    0.175850
    57  H    0.394866
    58  H    0.165168
    59  H    0.199783
    60  H    0.182478
    61  H    0.384242
    62  H    0.219298
    63  H    0.177962
    64  H    0.202215
 Sum of Mulliken atomic charges =   0.00000

 Dipole moment (field-independent basis, Debye):
    X=              6.8254    Y=             -3.9695    Z=             -4.1794  Tot=              8.9337
 Quadrupole moment (field-independent basis, Debye-Ang):
   XX=           -164.0880   YY=           -163.4699   ZZ=           -169.1856
   XY=            -15.3034   XZ=             -1.5966   YZ=             -2.6248

 Normal termination of Gaussian 09 at Thu Dec  5 18:02:31 2019.
