 Gaussian 09, Revision A.02,
 Gaussian 09:  EM64L-G09RevA.02 11-Jun-2009

 ---------------------------------
 #SP HF/6-31G* Geom=(ModRedundant)
 ---------------------------------

 ------------
 paramfit run
 ------------
 Symbolic Z-matrix:
 Charge =  0 Multiplicity = 1

                         Standard orientation:
 ---------------------------------------------------------------------
 Center     Atomic      Atomic             Coordinates (Angstroms)
 Number     Number       Type             X           Y           Z
 ---------------------------------------------------------------------
      1          6    20001001       -2.771881    0.585602    2.694227
      2          7    20001014       -3.568548   -0.054104    1.667901
      3          6    20001002       -3.375147    0.264555    0.366686
      4          8    20001024       -2.422420    0.889158   -0.010049
      5          6    90000001       -4.374103   -0.334336   -0.639694
      6          6    90000002       -4.321428    0.459537   -1.949211
      7          6    90000002       -4.060968   -1.837316   -0.873356
      8          6    90000002       -2.688211   -2.234091   -1.445844
      9          6    90000002       -1.607885   -1.138168   -1.537967
     10          6    20001004       -1.295327   -0.470660   -0.219247
     11          6    20001004       -0.290031   -0.734486    0.599614
     12          6    90000002        0.793967   -1.769863    0.418790
     13          6    90000002        2.145474   -1.197819   -0.045705
     14          6    90000002        2.739464   -0.195914    0.953432
     15          6    90000002        4.178397    0.322114    0.696980
     16          6    90000002        4.505735    1.347486    1.794666
     17          7    20001014        5.099965   -0.801762    0.792602
     18          6    20001002        6.419957   -0.671048    0.470741
     19          6    20001001        7.154770   -1.973679    0.251647
     20          8    20001024        6.962892    0.393759    0.368031
     21          6    20001002        4.249293    0.885355   -0.740537
     22          8    20001024        4.432861    0.148405   -1.671739
     23          7    20001014        3.996299    2.201602   -0.906272
     24          6    20001001        4.095879    2.804019   -2.219809
     25          7    20001014       -5.734458   -0.319756   -0.082330
     26          6    20001002       -6.386117    0.817628    0.293661
     27          6    20001001       -7.878557    0.664570    0.501779
     28          8    20001024       -5.821208    1.861298    0.460308
     29          1    20001035       -2.981155    1.646854    2.764211
     30          1    20001035       -1.722156    0.456542    2.474812
     31          1    20001035       -2.991198    0.116030    3.644888
     32          1    20001029       -4.480126   -0.356585    1.920519
     33          1    20001034       -3.322417    0.474344   -2.357486
     34          1    20001034       -4.993534    0.007816   -2.672716
     35          1    20001034       -4.621986    1.483387   -1.780919
     36          1    20001034       -4.813944   -2.187597   -1.575887
     37          1    20001034       -4.237167   -2.373774    0.053708
     38          1    20001034       -2.302009   -3.018949   -0.802055
     39          1    20001034       -2.810628   -2.682077   -2.426505
     40          1    20001034       -1.904669   -0.383692   -2.254939
     41          1    20001034       -0.715479   -1.601744   -1.943605
     42          1    20001033       -1.977434    0.311714    0.071844
     43          1    20001033       -0.222427   -0.147696    1.502314
     44          1    20001034        0.480461   -2.521568   -0.295437
     45          1    20001034        0.935878   -2.291052    1.364739
     46          1    20001034        2.821570   -2.033590   -0.203040
     47          1    20001034        2.021691   -0.728840   -1.012952
     48          1    20001034        2.741782   -0.636320    1.948204
     49          1    20001034        2.092053    0.671876    0.999790
     50          1    20001034        4.530985    0.836666    2.750181
     51          1    20001034        3.740922    2.114695    1.856558
     52          1    20001034        5.468185    1.809790    1.634343
     53          1    20001029        4.707732   -1.691443    0.584440
     54          1    20001034        8.214022   -1.806882    0.375047
     55          1    20001034        6.970903   -2.307782   -0.765060
     56          1    20001034        6.822440   -2.749457    0.932902
     57          1    20001029        4.089596    2.803268   -0.122305
     58          1    20001035        3.740212    3.824230   -2.159873
     59          1    20001035        3.481170    2.257088   -2.919541
     60          1    20001035        5.117134    2.803008   -2.586948
     61          1    20001029       -6.306520   -1.097652   -0.325580
     62          1    20001034       -8.224378    1.458877    1.147114
     63          1    20001034       -8.136494   -0.295865    0.933732
     64          1    20001034       -8.382508    0.752663   -0.455339
 ---------------------------------------------------------------------

 SCF Done:  E(RHF) =  -1295.08814712     A.U. after   19 cycles

 The electronic state is 1-A.
 Alpha  occ. eigenvalues --  -20.56643 -20.54838 -20.50993 -20.50317 -15.61578
 Alpha  occ. eigenvalues --  -15.60995 -15.56730 -15.56249 -11.37604 -11.37128
 Alpha  occ. eigenvalues --  -11.33195 -11.32400 -11.30909 -11.27058 -11.26599
 Alpha  occ. eigenvalues --  -11.25255 -11.24464 -11.24052 -11.21982 -11.21860
 Alpha  occ. eigenvalues --  -11.21635 -11.21314 -11.20563 -11.19626 -11.19263
 Alpha  occ. eigenvalues --  -11.18514 -11.16435 -11.08028  -1.60735  -1.41702
 Alpha  occ. eigenvalues --   -1.38213  -1.36914  -1.28418  -1.25438  -1.22252
 Alpha  occ. eigenvalues --   -1.21446  -1.10576  -1.07500  -1.05905  -1.02852
 Alpha  occ. eigenvalues --   -1.01580  -0.98501  -0.98007  -0.97403  -0.94583
 Alpha  occ. eigenvalues --   -0.93910  -0.93228  -0.89075  -0.86431  -0.83343
 Alpha  occ. eigenvalues --   -0.82045  -0.80778  -0.79094  -0.78278  -0.76946
 Alpha  occ. eigenvalues --   -0.75662  -0.74062  -0.70224  -0.70155  -0.69598
 Alpha  occ. eigenvalues --   -0.67207  -0.66563  -0.65695  -0.64066  -0.63904
 Alpha  occ. eigenvalues --   -0.63237  -0.62595  -0.62176  -0.61158  -0.60835
 Alpha  occ. eigenvalues --   -0.60479  -0.60054  -0.59843  -0.59229  -0.58375
 Alpha  occ. eigenvalues --   -0.57666  -0.57320  -0.56890  -0.56630  -0.56237
 Alpha  occ. eigenvalues --   -0.55313  -0.54768  -0.54179  -0.53964  -0.53800
 Alpha  occ. eigenvalues --   -0.53426  -0.52415  -0.51816  -0.51658  -0.50957
 Alpha  occ. eigenvalues --   -0.50004  -0.48942  -0.48684  -0.47750  -0.46849
 Alpha  occ. eigenvalues --   -0.46386  -0.45431  -0.44764  -0.44509  -0.43285
 Alpha  occ. eigenvalues --   -0.42397  -0.41502  -0.40215  -0.39963  -0.37633
 Alpha  occ. eigenvalues --   -0.37050  -0.28789  -0.20116
 Alpha virt. eigenvalues --    0.11823   0.17746   0.18965   0.20833   0.21949
 Alpha virt. eigenvalues --    0.22864   0.22981   0.23107   0.24354   0.25106
 Alpha virt. eigenvalues --    0.25362   0.26960   0.27126   0.27351   0.28320

 Mulliken atomic charges:
              1
     1  C   -0.305281
     2  N   -0.731914
     3  C    0.764546
     4  O   -0.388142
     5  C    0.100471
     6  C   -0.479141
     7  C   -0.331460
     8  C   -0.305390
     9  C   -0.361751
    10  C   -0.397651
    11  C   -0.213364
    12  C   -0.331888
    13  C   -0.304082
    14  C   -0.324599
    15  C    0.090159
    16  C   -0.509003
    17  N   -0.787933
    18  C    0.767413
    19  C   -0.594982
    20  O   -0.616818
    21  C    0.822569
    22  O   -0.641332
    23  N   -0.804645
    24  C   -0.273497
    25  N   -0.842564
    26  C    0.742994
    27  C   -0.589483
    28  O   -0.590952
    29  H    0.194032
    30  H    0.218574
    31  H    0.180293
    32  H    0.411763
    33  H    0.202581
    34  H    0.157360
    35  H    0.212143
    36  H    0.165185
    37  H    0.181620
    38  H    0.175527
    39  H    0.161387
    40  H    0.156031
    41  H    0.162725
    42  H    0.315939
    43  H    0.111479
    44  H    0.155684
    45  H    0.130672
    46  H    0.134526
    47  H    0.190653
    48  H    0.167429
    49  H    0.187190
    50  H    0.180861
    51  H    0.147902
    52  H    0.221860
    53  H    0.391224
    54  H    0.207711
    55  H    0.208297
    56  H    0.175662
    57  H    0.394088
    58  H    0.162502
    59  H    0.198568
    60  H    0.181347
    61  H    0.389305
    62  H    0.221177
    63  H    0.179520
    64  H    0.204900
 Sum of Mulliken atomic charges =   0.00000

 Dipole moment (field-independent basis, Debye):
    X=            -10.1285    Y=             -2.7366    Z=              2.7362  Tot=             10.8427
 Quadrupole moment (field-independent basis, Debye-Ang):
   XX=           -152.7715   YY=           -166.2930   ZZ=           -166.4519
   XY=             11.6947   XZ=              4.7874   YZ=             -2.1217

 Normal termination of Gaussian 09 at Thu Dec  5 17:49:01 2019.
