 Gaussian 09, Revision A.02,
 Gaussian 09:  EM64L-G09RevA.02 11-Jun-2009

 ---------------------------------
 #SP HF/6-31G* Geom=(ModRedundant)
 ---------------------------------

 ------------
 paramfit run
 ------------
 Symbolic Z-matrix:
 Charge =  0 Multiplicity = 1

                         Standard orientation:
 ---------------------------------------------------------------------
 Center     Atomic      Atomic             Coordinates (Angstroms)
 Number     Number       Type             X           Y           Z
 ---------------------------------------------------------------------
      1          6    20001001       -6.611861    2.648984    1.147502
      2          7    20001014       -5.988309    1.348892    1.012637
      3          6    20001002       -4.857267    1.215336    0.281188
      4          8    20001024       -4.210265    2.157333   -0.084566
      5          6    90000001       -4.356976   -0.222221    0.052013
      6          6    90000002       -3.387905   -0.245199   -1.134670
      7          6    90000002       -3.687563   -0.767184    1.342945
      8          6    90000002       -2.454227   -0.040320    1.908795
      9          6    90000002       -1.093193   -0.757454    1.809077
     10          6    20001004       -0.701158   -1.139151    0.400925
     11          6    20001004        0.112511   -0.487637   -0.414078
     12          6    90000002        0.850392    0.800469   -0.138275
     13          6    90000002        2.343034    0.617742    0.190657
     14          6    90000002        3.127438   -0.031491   -0.957439
     15          6    90000002        4.670828   -0.112221   -0.830656
     16          6    90000002        5.200722   -0.853453   -2.068897
     17          7    20001014        5.206078    1.242260   -0.810141
     18          6    20001002        6.526295    1.483705   -0.561568
     19          6    20001001        6.855476    2.913460   -0.197909
     20          8    20001024        7.367566    0.630858   -0.625255
     21          6    20001002        5.018914   -0.790730    0.513660
     22          8    20001024        5.047806   -0.146869    1.527827
     23          7    20001014        5.182547   -2.131324    0.510022
     24          6    20001001        5.559812   -2.823646    1.725160
     25          7    20001014       -5.490163   -1.127024   -0.190166
     26          6    20001002       -6.366098   -0.982619   -1.225325
     27          6    20001001       -7.230654   -2.193343   -1.509596
     28          8    20001024       -6.457080    0.030691   -1.858622
     29          1    20001035       -6.998108    3.011046    0.201629
     30          1    20001035       -5.891356    3.362479    1.519684
     31          1    20001035       -7.425477    2.570132    1.857548
     32          1    20001029       -6.578535    0.552092    1.067658
     33          1    20001034       -2.562031    0.431825   -0.978139
     34          1    20001034       -3.001502   -1.251520   -1.266006
     35          1    20001034       -3.893772    0.058502   -2.039540
     36          1    20001034       -3.379591   -1.783316    1.106622
     37          1    20001034       -4.446090   -0.851151    2.114869
     38          1    20001034       -2.370764    0.894429    1.362080
     39          1    20001034       -2.626689    0.231329    2.945056
     40          1    20001034       -1.094842   -1.644756    2.428800
     41          1    20001034       -0.349923   -0.094472    2.237841
     42          1    20001033       -1.140524   -2.052690    0.034158
     43          1    20001033        0.280221   -0.916297   -1.389724
     44          1    20001034        0.384833    1.332005    0.682816
     45          1    20001034        0.756004    1.446762   -1.010048
     46          1    20001034        2.750277    1.595527    0.432450
     47          1    20001034        2.440828    0.023838    1.089848
     48          1    20001034        2.920393    0.501575   -1.882915
     49          1    20001034        2.765746   -1.043743   -1.094822
     50          1    20001034        4.997655   -0.251422   -2.946908
     51          1    20001034        4.696193   -1.804630   -2.203413
     52          1    20001034        6.266589   -1.015609   -2.010836
     53          1    20001029        4.584743    1.939259   -0.468315
     54          1    20001034        7.903261    3.093245   -0.384680
     55          1    20001034        6.661237    3.054520    0.861099
     56          1    20001034        6.254980    3.624866   -0.754405
     57          1    20001029        5.388475   -2.580064   -0.351103
     58          1    20001035        5.519969   -3.889406    1.542161
     59          1    20001035        4.867385   -2.575825    2.516207
     60          1    20001035        6.560175   -2.554084    2.048217
     61          1    20001029       -5.394098   -2.045039    0.183424
     62          1    20001034       -8.114821   -1.873841   -2.041707
     63          1    20001034       -7.517788   -2.714710   -0.603351
     64          1    20001034       -6.679467   -2.884742   -2.138850
 ---------------------------------------------------------------------

 SCF Done:  E(RHF) =  -1295.61492423     A.U. after   14 cycles

 The electronic state is 1-A.
 Alpha  occ. eigenvalues --  -20.53471 -20.51998 -20.51669 -20.51569 -15.59422
 Alpha  occ. eigenvalues --  -15.58009 -15.57465 -15.57095 -11.35807 -11.34199
 Alpha  occ. eigenvalues --  -11.33744 -11.33520 -11.28829 -11.28551 -11.25180
 Alpha  occ. eigenvalues --  -11.24578 -11.24255 -11.23908 -11.23360 -11.22693
 Alpha  occ. eigenvalues --  -11.22513 -11.22465 -11.22428 -11.22423 -11.22328
 Alpha  occ. eigenvalues --  -11.22306 -11.21768 -11.20193  -1.40398  -1.39377
 Alpha  occ. eigenvalues --   -1.38357  -1.38110  -1.25221  -1.23506  -1.22718
 Alpha  occ. eigenvalues --   -1.21701  -1.10999  -1.09215  -1.07136  -1.04254
 Alpha  occ. eigenvalues --   -1.01244  -0.99303  -0.98715  -0.95265  -0.95115
 Alpha  occ. eigenvalues --   -0.94644  -0.92070  -0.86954  -0.85633  -0.83039
 Alpha  occ. eigenvalues --   -0.81416  -0.79501  -0.78755  -0.76916  -0.76817
 Alpha  occ. eigenvalues --   -0.72117  -0.71305  -0.70872  -0.68965  -0.68020
 Alpha  occ. eigenvalues --   -0.66716  -0.65730  -0.64488  -0.63840  -0.63640
 Alpha  occ. eigenvalues --   -0.62662  -0.62307  -0.61838  -0.61416  -0.61214
 Alpha  occ. eigenvalues --   -0.60819  -0.59541  -0.59272  -0.58871  -0.58665
 Alpha  occ. eigenvalues --   -0.58113  -0.57166  -0.56687  -0.56415  -0.55869
 Alpha  occ. eigenvalues --   -0.55361  -0.55012  -0.54762  -0.54350  -0.54005
 Alpha  occ. eigenvalues --   -0.53077  -0.52489  -0.52191  -0.52005  -0.51770
 Alpha  occ. eigenvalues --   -0.50944  -0.50141  -0.49769  -0.49240  -0.48605
 Alpha  occ. eigenvalues --   -0.48448  -0.46857  -0.46372  -0.44860  -0.42631
 Alpha  occ. eigenvalues --   -0.41842  -0.41522  -0.41022  -0.39028  -0.38873
 Alpha  occ. eigenvalues --   -0.38345  -0.37896  -0.34546
 Alpha virt. eigenvalues --    0.16882   0.18961   0.19657   0.20306   0.20655
 Alpha virt. eigenvalues --    0.21587   0.21920   0.23016   0.23443   0.23704
 Alpha virt. eigenvalues --    0.24902   0.25631   0.26413   0.26923   0.27343

 Mulliken atomic charges:
              1
     1  C   -0.278344
     2  N   -0.782323
     3  C    0.817908
     4  O   -0.624503
     5  C    0.094415
     6  C   -0.465625
     7  C   -0.330903
     8  C   -0.332218
     9  C   -0.350357
    10  C   -0.172450
    11  C   -0.168222
    12  C   -0.357246
    13  C   -0.312001
    14  C   -0.329452
    15  C    0.090928
    16  C   -0.509798
    17  N   -0.787183
    18  C    0.767116
    19  C   -0.595793
    20  O   -0.614511
    21  C    0.820315
    22  O   -0.639749
    23  N   -0.806307
    24  C   -0.274805
    25  N   -0.843052
    26  C    0.745105
    27  C   -0.588532
    28  O   -0.591715
    29  H    0.184742
    30  H    0.197942
    31  H    0.161428
    32  H    0.389900
    33  H    0.207448
    34  H    0.138138
    35  H    0.206819
    36  H    0.156698
    37  H    0.182246
    38  H    0.204695
    39  H    0.173090
    40  H    0.165143
    41  H    0.180289
    42  H    0.168823
    43  H    0.174084
    44  H    0.182124
    45  H    0.169864
    46  H    0.153669
    47  H    0.194867
    48  H    0.176423
    49  H    0.183048
    50  H    0.185200
    51  H    0.147778
    52  H    0.226368
    53  H    0.390601
    54  H    0.211025
    55  H    0.208985
    56  H    0.177866
    57  H    0.395738
    58  H    0.164222
    59  H    0.197156
    60  H    0.185608
    61  H    0.381702
    62  H    0.218310
    63  H    0.176947
    64  H    0.200317
 Sum of Mulliken atomic charges =   0.00000

 Dipole moment (field-independent basis, Debye):
    X=             -3.9164    Y=             -5.5186    Z=              1.1409  Tot=              6.8626
 Quadrupole moment (field-independent basis, Debye-Ang):
   XX=           -185.4726   YY=           -154.3317   ZZ=           -176.4770
   XY=             22.7142   XZ=            -23.2706   YZ=              4.5078

 Normal termination of Gaussian 09 at Thu Dec  5 16:35:06 2019.
