 Gaussian 09, Revision A.02,
 Gaussian 09:  EM64L-G09RevA.02 11-Jun-2009

 ---------------------------------
 #SP HF/6-31G* Geom=(ModRedundant)
 ---------------------------------

 ------------
 paramfit run
 ------------
 Symbolic Z-matrix:
 Charge =  0 Multiplicity = 1

                         Standard orientation:
 ---------------------------------------------------------------------
 Center     Atomic      Atomic             Coordinates (Angstroms)
 Number     Number       Type             X           Y           Z
 ---------------------------------------------------------------------
      1          6    20001001       -2.916973   -1.318051    2.563046
      2          7    20001014       -3.671861   -1.142542    1.339695
      3          6    20001002       -3.354410   -0.138965    0.488714
      4          8    20001024       -2.334095    0.485868    0.579738
      5          6    90000001       -4.309243    0.078172   -0.698943
      6          6    90000002       -4.098384    1.481501   -1.276912
      7          6    90000002       -4.082726   -1.019160   -1.774189
      8          6    90000002       -2.699457   -1.139450   -2.438818
      9          6    90000002       -1.603575   -0.150888   -1.993370
     10          6    20001004       -1.319889   -0.175221   -0.509724
     11          6    20001004       -0.341245   -0.811171    0.113641
     12          6    90000002        0.734572   -1.671661   -0.504361
     13          6    90000002        2.105495   -0.982205   -0.625957
     14          6    90000002        2.683547   -0.569193    0.734260
     15          6    90000002        4.135361   -0.025764    0.773834
     16          6    90000002        4.444415    0.368922    2.227162
     17          7    20001014        5.039995   -1.088476    0.356927
     18          6    20001002        6.369991   -0.855462    0.157250
     19          6    20001001        7.094574   -1.926942   -0.624872
     20          8    20001024        6.928649    0.123214    0.568636
     21          6    20001002        4.253420    1.135623   -0.239066
     22          8    20001024        4.453919    0.907649   -1.401717
     23          7    20001014        4.021378    2.385339    0.217383
     24          6    20001001        4.165116    3.523546   -0.666940
     25          7    20001014       -5.705277   -0.099845   -0.273701
     26          6    20001002       -6.304891    0.655463    0.690480
     27          6    20001001       -7.816119    0.562990    0.732402
     28          8    20001024       -5.684507    1.334686    1.458543
     29          1    20001035       -3.057616   -0.488345    3.246241
     30          1    20001035       -1.864529   -1.399389    2.333984
     31          1    20001035       -3.242779   -2.232802    3.042040
     32          1    20001029       -4.619248   -1.440433    1.341684
     33          1    20001034       -3.071497    1.632044   -1.573176
     34          1    20001034       -4.740480    1.615939   -2.142289
     35          1    20001034       -4.340178    2.232575   -0.539111
     36          1    20001034       -4.799929   -0.807611   -2.564181
     37          1    20001034       -4.368384   -1.977942   -1.352980
     38          1    20001034       -2.341124   -2.141832   -2.223307
     39          1    20001034       -2.799859   -1.081057   -3.517653
     40          1    20001034       -1.870854    0.856205   -2.286095
     41          1    20001034       -0.705927   -0.395982   -2.550140
     42          1    20001033       -2.000205    0.400429    0.096832
     43          1    20001033       -0.291738   -0.709181    1.186445
     44          1    20001034        0.431972   -2.001029   -1.490980
     45          1    20001034        0.843510   -2.573901    0.096213
     46          1    20001034        2.775401   -1.666811   -1.138711
     47          1    20001034        2.014632   -0.116861   -1.269193
     48          1    20001034        2.652582   -1.419009    1.412778
     49          1    20001034        2.045816    0.194354    1.163965
     50          1    20001034        4.436605   -0.525757    2.838773
     51          1    20001034        3.687664    1.038909    2.621911
     52          1    20001034        5.416592    0.829925    2.317086
     53          1    20001029        4.642831   -1.771942   -0.246271
     54          1    20001034        8.151924   -1.861267   -0.418092
     55          1    20001034        6.935161   -1.749457   -1.684217
     56          1    20001034        6.733772   -2.921430   -0.385712
     57          1    20001029        4.100075    2.554719    1.192281
     58          1    20001035        3.820487    4.409024   -0.149173
     59          1    20001035        3.563566    3.376252   -1.551851
     60          1    20001035        5.196164    3.667780   -0.973354
     61          1    20001029       -6.308412   -0.520341   -0.945236
     62          1    20001034       -8.156550    0.853275    1.715669
     63          1    20001034       -8.172972   -0.434495    0.501686
     64          1    20001034       -8.235319    1.250278    0.004592
 ---------------------------------------------------------------------

 SCF Done:  E(RHF) =  -1294.73310706     A.U. after   24 cycles

 The electronic state is 1-A.
 Alpha  occ. eigenvalues --  -20.60676 -20.53914 -20.51253 -20.50656 -15.60205
 Alpha  occ. eigenvalues --  -15.58408 -15.57033 -15.56563 -11.36305 -11.33456
 Alpha  occ. eigenvalues --  -11.32731 -11.32539 -11.30209 -11.27415 -11.25370
 Alpha  occ. eigenvalues --  -11.24671 -11.24322 -11.23875 -11.22290 -11.21859
 Alpha  occ. eigenvalues --  -11.21790 -11.21642 -11.21109 -11.20822 -11.20413
 Alpha  occ. eigenvalues --  -11.19708 -11.17782 -11.13178  -1.68996  -1.40777
 Alpha  occ. eigenvalues --   -1.38505  -1.37221  -1.27377  -1.24292  -1.22571
 Alpha  occ. eigenvalues --   -1.21751  -1.10295  -1.09482  -1.07565  -1.03532
 Alpha  occ. eigenvalues --   -1.02874  -0.99582  -0.98417  -0.97569  -0.95566
 Alpha  occ. eigenvalues --   -0.94609  -0.93853  -0.89751  -0.86986  -0.84135
 Alpha  occ. eigenvalues --   -0.82087  -0.79973  -0.78733  -0.78440  -0.76228
 Alpha  occ. eigenvalues --   -0.75970  -0.74740  -0.70527  -0.69775  -0.69433
 Alpha  occ. eigenvalues --   -0.67497  -0.66537  -0.65471  -0.64205  -0.63711
 Alpha  occ. eigenvalues --   -0.62995  -0.62934  -0.62787  -0.61347  -0.60762
 Alpha  occ. eigenvalues --   -0.60477  -0.60361  -0.59863  -0.59310  -0.58572
 Alpha  occ. eigenvalues --   -0.57830  -0.57564  -0.57079  -0.56571  -0.55845
 Alpha  occ. eigenvalues --   -0.55481  -0.55123  -0.54257  -0.54202  -0.53805
 Alpha  occ. eigenvalues --   -0.53610  -0.52679  -0.52224  -0.51713  -0.51413
 Alpha  occ. eigenvalues --   -0.50451  -0.49053  -0.48576  -0.48273  -0.47340
 Alpha  occ. eigenvalues --   -0.46894  -0.46023  -0.45306  -0.44051  -0.43801
 Alpha  occ. eigenvalues --   -0.42186  -0.40581  -0.40543  -0.40238  -0.37940
 Alpha  occ. eigenvalues --   -0.37373  -0.30801  -0.15383
 Alpha virt. eigenvalues --    0.12614   0.18514   0.19436   0.20395   0.20590
 Alpha virt. eigenvalues --    0.22526   0.22908   0.23476   0.24202   0.24607
 Alpha virt. eigenvalues --    0.25506   0.26239   0.26974   0.27457   0.28140

 Mulliken atomic charges:
              1
     1  C   -0.293876
     2  N   -0.761056
     3  C    0.661633
     4  O   -0.180157
     5  C    0.115038
     6  C   -0.487208
     7  C   -0.327865
     8  C   -0.311483
     9  C   -0.365530
    10  C   -0.310857
    11  C   -0.208258
    12  C   -0.332760
    13  C   -0.304766
    14  C   -0.326126
    15  C    0.089677
    16  C   -0.509371
    17  N   -0.787679
    18  C    0.767434
    19  C   -0.595181
    20  O   -0.616013
    21  C    0.822047
    22  O   -0.641577
    23  N   -0.804824
    24  C   -0.273816
    25  N   -0.840728
    26  C    0.745078
    27  C   -0.589157
    28  O   -0.587759
    29  H    0.177610
    30  H    0.197770
    31  H    0.171815
    32  H    0.400260
    33  H    0.188646
    34  H    0.157026
    35  H    0.214886
    36  H    0.158230
    37  H    0.182615
    38  H    0.176400
    39  H    0.165737
    40  H    0.166195
    41  H    0.175733
    42  H    0.146258
    43  H    0.130021
    44  H    0.159934
    45  H    0.134877
    46  H    0.140254
    47  H    0.191544
    48  H    0.169403
    49  H    0.189251
    50  H    0.181897
    51  H    0.149128
    52  H    0.222792
    53  H    0.390654
    54  H    0.208643
    55  H    0.208236
    56  H    0.175958
    57  H    0.394880
    58  H    0.163328
    59  H    0.197750
    60  H    0.182327
    61  H    0.385795
    62  H    0.219551
    63  H    0.178042
    64  H    0.201695
 Sum of Mulliken atomic charges =   0.00000

 Dipole moment (field-independent basis, Debye):
    X=             -8.6566    Y=             -3.0827    Z=             -0.2368  Tot=              9.1922
 Quadrupole moment (field-independent basis, Debye-Ang):
   XX=           -158.5431   YY=           -162.1731   ZZ=           -171.3956
   XY=              4.1668   XZ=             14.0634   YZ=             -1.7728

 Normal termination of Gaussian 09 at Thu Dec  5 17:40:30 2019.
