 Gaussian 09, Revision A.02,
 Gaussian 09:  EM64L-G09RevA.02 11-Jun-2009

 ---------------------------------
 #SP HF/6-31G* Geom=(ModRedundant)
 ---------------------------------

 ------------
 paramfit run
 ------------
 Symbolic Z-matrix:
 Charge =  0 Multiplicity = 1

                         Standard orientation:
 ---------------------------------------------------------------------
 Center     Atomic      Atomic             Coordinates (Angstroms)
 Number     Number       Type             X           Y           Z
 ---------------------------------------------------------------------
      1          6    20001001       -6.365977    2.821318    0.922320
      2          7    20001014       -5.841929    1.471588    0.893171
      3          6    20001002       -4.688333    1.209436    0.235447
      4          8    20001024       -3.949934    2.076204   -0.143008
      5          6    90000001       -4.293003   -0.273136    0.112652
      6          6    90000002       -3.267926   -0.439206   -1.014060
      7          6    90000002       -3.737870   -0.792038    1.466968
      8          6    90000002       -2.481866   -0.130344    2.062159
      9          6    90000002       -1.133410   -0.852039    1.868614
     10          6    20001004       -0.779657   -1.116821    0.423960
     11          6    20001004        0.023498   -0.407651   -0.352427
     12          6    90000002        0.785068    0.843650    0.013647
     13          6    90000002        2.282377    0.616325    0.289243
     14          6    90000002        3.030805    0.058300   -0.928697
     15          6    90000002        4.575500   -0.050763   -0.847038
     16          6    90000002        5.066151   -0.689823   -2.156356
     17          7    20001014        5.129442    1.290766   -0.724657
     18          6    20001002        6.458273    1.494882   -0.488856
     19          6    20001001        6.815273    2.884538   -0.013239
     20          8    20001024        7.286156    0.640908   -0.645319
     21          6    20001002        4.945695   -0.845364    0.425868
     22          8    20001024        5.007057   -0.290669    1.490047
     23          7    20001014        5.090963   -2.182569    0.304376
     24          6    20001001        5.487116   -2.980259    1.446723
     25          7    20001014       -5.480496   -1.100850   -0.144604
     26          6    20001002       -6.286589   -0.949964   -1.234154
     27          6    20001001       -7.228880   -2.105232   -1.501665
     28          8    20001024       -6.263074    0.028887   -1.925123
     29          1    20001035       -6.671938    3.156459   -0.062067
     30          1    20001035       -5.611364    3.497816    1.295996
     31          1    20001035       -7.219423    2.846450    1.588166
     32          1    20001029       -6.495921    0.726960    0.957272
     33          1    20001034       -2.400021    0.180395   -0.847424
     34          1    20001034       -2.956690   -1.478127   -1.068959
     35          1    20001034       -3.699769   -0.150597   -1.961236
     36          1    20001034       -3.499981   -1.840798    1.303472
     37          1    20001034       -4.540134   -0.772633    2.197909
     38          1    20001034       -2.398523    0.846578    1.594935
     39          1    20001034       -2.626325    0.053962    3.121657
     40          1    20001034       -1.132615   -1.788857    2.410588
     41          1    20001034       -0.371369   -0.236645    2.333822
     42          1    20001033       -1.239859   -1.990638   -0.008212
     43          1    20001033        0.162491   -0.753496   -1.364767
     44          1    20001034        0.346117    1.308607    0.888063
     45          1    20001034        0.679098    1.562947   -0.797511
     46          1    20001034        2.708416    1.565173    0.603173
     47          1    20001034        2.393104   -0.053153    1.132078
     48          1    20001034        2.809424    0.670666   -1.800209
     49          1    20001034        2.652274   -0.934314   -1.142670
     50          1    20001034        4.850796   -0.012839   -2.974827
     51          1    20001034        4.545733   -1.620182   -2.358789
     52          1    20001034        6.130783   -0.868636   -2.138378
     53          1    20001029        4.525805    1.963223   -0.309763
     54          1    20001034        7.860748    3.067476   -0.209650
     55          1    20001034        6.647802    2.937052    1.058358
     56          1    20001034        6.211643    3.647677   -0.492438
     57          1    20001029        5.270568   -2.558624   -0.596533
     58          1    20001035        5.428522   -4.026010    1.174893
     59          1    20001035        4.816820   -2.792785    2.272667
     60          1    20001035        6.498335   -2.750786    1.766931
     61          1    20001029       -5.477721   -2.000304    0.282622
     62          1    20001034       -8.055591   -1.750245   -2.099583
     63          1    20001034       -7.603854   -2.549575   -0.586513
     64          1    20001034       -6.702359   -2.872223   -2.060506
 ---------------------------------------------------------------------

 SCF Done:  E(RHF) =  -1295.60796935     A.U. after   14 cycles

 The electronic state is 1-A.
 Alpha  occ. eigenvalues --  -20.53444 -20.51930 -20.51593 -20.51582 -15.59388
 Alpha  occ. eigenvalues --  -15.57937 -15.57385 -15.57111 -11.35779 -11.34131
 Alpha  occ. eigenvalues --  -11.33666 -11.33529 -11.28786 -11.28456 -11.25123
 Alpha  occ. eigenvalues --  -11.24597 -11.24239 -11.23963 -11.23234 -11.22661
 Alpha  occ. eigenvalues --  -11.22536 -11.22372 -11.22298 -11.22238 -11.22172
 Alpha  occ. eigenvalues --  -11.22007 -11.21680 -11.19887  -1.40371  -1.39305
 Alpha  occ. eigenvalues --   -1.38371  -1.38038  -1.25197  -1.23425  -1.22647
 Alpha  occ. eigenvalues --   -1.21711  -1.10985  -1.09151  -1.07002  -1.04159
 Alpha  occ. eigenvalues --   -1.01227  -0.99322  -0.98679  -0.95270  -0.95098
 Alpha  occ. eigenvalues --   -0.94593  -0.91868  -0.86886  -0.85648  -0.83033
 Alpha  occ. eigenvalues --   -0.81306  -0.79425  -0.78714  -0.76841  -0.76831
 Alpha  occ. eigenvalues --   -0.72061  -0.71244  -0.70821  -0.68910  -0.67946
 Alpha  occ. eigenvalues --   -0.66634  -0.65733  -0.64414  -0.63786  -0.63659
 Alpha  occ. eigenvalues --   -0.62591  -0.62287  -0.61751  -0.61347  -0.61144
 Alpha  occ. eigenvalues --   -0.60759  -0.59568  -0.59235  -0.58912  -0.58619
 Alpha  occ. eigenvalues --   -0.58216  -0.57197  -0.56517  -0.56388  -0.55819
 Alpha  occ. eigenvalues --   -0.55276  -0.54903  -0.54687  -0.54360  -0.54051
 Alpha  occ. eigenvalues --   -0.52995  -0.52516  -0.52169  -0.51998  -0.51660
 Alpha  occ. eigenvalues --   -0.50737  -0.50084  -0.49685  -0.49254  -0.48454
 Alpha  occ. eigenvalues --   -0.48310  -0.46938  -0.46224  -0.44734  -0.42628
 Alpha  occ. eigenvalues --   -0.41830  -0.41442  -0.40953  -0.39038  -0.38799
 Alpha  occ. eigenvalues --   -0.38267  -0.37907  -0.34047
 Alpha virt. eigenvalues --    0.17008   0.18992   0.19732   0.20325   0.20649
 Alpha virt. eigenvalues --    0.21660   0.21976   0.23162   0.23393   0.23857
 Alpha virt. eigenvalues --    0.24981   0.25594   0.26446   0.26984   0.27407

 Mulliken atomic charges:
              1
     1  C   -0.278295
     2  N   -0.782171
     3  C    0.817402
     4  O   -0.624907
     5  C    0.099980
     6  C   -0.474654
     7  C   -0.333628
     8  C   -0.333266
     9  C   -0.347618
    10  C   -0.176985
    11  C   -0.169375
    12  C   -0.354843
    13  C   -0.311705
    14  C   -0.329435
    15  C    0.090799
    16  C   -0.509801
    17  N   -0.787131
    18  C    0.767156
    19  C   -0.595771
    20  O   -0.614666
    21  C    0.820407
    22  O   -0.639964
    23  N   -0.806249
    24  C   -0.274690
    25  N   -0.843567
    26  C    0.745405
    27  C   -0.588494
    28  O   -0.591880
    29  H    0.184807
    30  H    0.197659
    31  H    0.161514
    32  H    0.390062
    33  H    0.219677
    34  H    0.132837
    35  H    0.206956
    36  H    0.155688
    37  H    0.182567
    38  H    0.204782
    39  H    0.172331
    40  H    0.165098
    41  H    0.180545
    42  H    0.173763
    43  H    0.174621
    44  H    0.180853
    45  H    0.170976
    46  H    0.152846
    47  H    0.194126
    48  H    0.176704
    49  H    0.183156
    50  H    0.185290
    51  H    0.147836
    52  H    0.226056
    53  H    0.390654
    54  H    0.210834
    55  H    0.208804
    56  H    0.177885
    57  H    0.395723
    58  H    0.164100
    59  H    0.197042
    60  H    0.185411
    61  H    0.381491
    62  H    0.218178
    63  H    0.176857
    64  H    0.200219
 Sum of Mulliken atomic charges =   0.00000

 Dipole moment (field-independent basis, Debye):
    X=             -4.5530    Y=             -5.0302    Z=              1.3841  Tot=              6.9244
 Quadrupole moment (field-independent basis, Debye-Ang):
   XX=           -180.7736   YY=           -153.4665   ZZ=           -177.2467
   XY=             21.2103   XZ=            -22.8265   YZ=              5.7284

 Normal termination of Gaussian 09 at Thu Dec  5 16:40:33 2019.
