 Gaussian 09, Revision A.02,
 Gaussian 09:  EM64L-G09RevA.02 11-Jun-2009

 ---------------------------------
 #SP HF/6-31G* Geom=(ModRedundant)
 ---------------------------------

 ------------
 paramfit run
 ------------
 Symbolic Z-matrix:
 Charge =  0 Multiplicity = 1

                         Standard orientation:
 ---------------------------------------------------------------------
 Center     Atomic      Atomic             Coordinates (Angstroms)
 Number     Number       Type             X           Y           Z
 ---------------------------------------------------------------------
      1          6    20001001       -4.369028    3.096272    0.210988
      2          7    20001014       -4.489659    1.661281    0.364267
      3          6    20001002       -4.633466    0.875438   -0.728381
      4          8    20001024       -4.444001    1.278419   -1.842587
      5          6    90000001       -4.922155   -0.613662   -0.466413
      6          6    90000002       -5.507530   -1.252861   -1.729980
      7          6    90000002       -3.625535   -1.337402   -0.011905
      8          6    90000002       -2.413651   -1.364837   -0.960706
      9          6    90000002       -1.277896   -0.355632   -0.699548
     10          6    20001004       -0.682573   -0.445091    0.686044
     11          6    20001004        0.425410   -1.070934    1.048604
     12          6    90000002        1.369240   -1.852243    0.166280
     13          6    90000002        2.661091   -1.100473   -0.201857
     14          6    90000002        3.504311   -0.734794    1.027034
     15          6    90000002        4.914014   -0.133704    0.790236
     16          6    90000002        5.515077    0.197562    2.165895
     17          7    20001014        5.739808   -1.134415    0.128289
     18          6    20001002        6.988643   -0.835728   -0.334587
     19          6    20001001        7.560719   -1.833769   -1.315122
     20          8    20001024        7.592877    0.142834    0.006670
     21          6    20001002        4.777692    1.082671   -0.153466
     22          8    20001024        4.731375    0.924029   -1.343683
     23          7    20001014        4.611459    2.296143    0.415597
     24          6    20001001        4.528428    3.483788   -0.409514
     25          7    20001014       -5.849008   -0.765022    0.664721
     26          6    20001002       -7.108519   -0.242680    0.686217
     27          6    20001001       -8.017056   -0.799260    1.762738
     28          8    20001024       -7.470471    0.603875   -0.080905
     29          1    20001035       -5.279781    3.538435   -0.176271
     30          1    20001035       -3.560993    3.324065   -0.468653
     31          1    20001035       -4.146028    3.529637    1.177848
     32          1    20001029       -4.888677    1.324821    1.209172
     33          1    20001034       -4.845329   -1.129387   -2.573293
     34          1    20001034       -5.668040   -2.312899   -1.557371
     35          1    20001034       -6.450510   -0.790716   -1.983232
     36          1    20001034       -3.914472   -2.370543    0.167970
     37          1    20001034       -3.325219   -0.933824    0.949976
     38          1    20001034       -1.987661   -2.361139   -0.886327
     39          1    20001034       -2.744382   -1.254736   -1.988260
     40          1    20001034       -1.631656    0.653204   -0.868270
     41          1    20001034       -0.513329   -0.533578   -1.447617
     42          1    20001033       -1.234180    0.069209    1.456331
     43          1    20001033        0.700358   -1.022835    2.090646
     44          1    20001034        0.872436   -2.142314   -0.751604
     45          1    20001034        1.631167   -2.779100    0.675125
     46          1    20001034        3.225874   -1.728793   -0.884945
     47          1    20001034        2.408783   -0.207454   -0.758352
     48          1    20001034        3.644760   -1.619267    1.644704
     49          1    20001034        2.950801   -0.022044    1.627004
     50          1    20001034        5.665153   -0.727223    2.710714
     51          1    20001034        4.840677    0.813782    2.751419
     52          1    20001034        6.469727    0.693665    2.074992
     53          1    20001029        5.243352   -1.801683   -0.416686
     54          1    20001034        8.635374   -1.734609   -1.333705
     55          1    20001034        7.172982   -1.608331   -2.304042
     56          1    20001034        7.289403   -2.853605   -1.064715
     57          1    20001029        4.891932    2.417795    1.359973
     58          1    20001035        4.276295    4.325923    0.221484
     59          1    20001035        3.756068    3.357552   -1.153927
     60          1    20001035        5.465189    3.686892   -0.918417
     61          1    20001029       -5.687323   -1.554479    1.249668
     62          1    20001034       -8.807971   -0.088700    1.953869
     63          1    20001034       -7.483124   -1.008267    2.682946
     64          1    20001034       -8.461391   -1.724593    1.410421
 ---------------------------------------------------------------------

 SCF Done:  E(RHF) =  -1295.62041278     A.U. after   14 cycles

 The electronic state is 1-A.
 Alpha  occ. eigenvalues --  -20.53588 -20.52122 -20.51707 -20.51690 -15.59545
 Alpha  occ. eigenvalues --  -15.57998 -15.57609 -15.57296 -11.35912 -11.34329
 Alpha  occ. eigenvalues --  -11.33776 -11.33680 -11.28969 -11.28672 -11.25079
 Alpha  occ. eigenvalues --  -11.24751 -11.24319 -11.23937 -11.23532 -11.22759
 Alpha  occ. eigenvalues --  -11.22636 -11.22575 -11.22568 -11.22515 -11.22386
 Alpha  occ. eigenvalues --  -11.22100 -11.21898 -11.20803  -1.40517  -1.39452
 Alpha  occ. eigenvalues --   -1.38499  -1.38177  -1.25352  -1.23639  -1.22710
 Alpha  occ. eigenvalues --   -1.21887  -1.10954  -1.09313  -1.07321  -1.04349
 Alpha  occ. eigenvalues --   -1.01304  -0.99355  -0.98804  -0.95369  -0.95227
 Alpha  occ. eigenvalues --   -0.94670  -0.92316  -0.87275  -0.85784  -0.82933
 Alpha  occ. eigenvalues --   -0.81425  -0.79584  -0.78832  -0.76997  -0.76968
 Alpha  occ. eigenvalues --   -0.72083  -0.71369  -0.71088  -0.68998  -0.68080
 Alpha  occ. eigenvalues --   -0.66858  -0.65700  -0.64589  -0.63976  -0.63808
 Alpha  occ. eigenvalues --   -0.62567  -0.62257  -0.61931  -0.61510  -0.61213
 Alpha  occ. eigenvalues --   -0.60775  -0.60059  -0.59395  -0.58814  -0.58514
 Alpha  occ. eigenvalues --   -0.58071  -0.57907  -0.56691  -0.56475  -0.56266
 Alpha  occ. eigenvalues --   -0.55481  -0.54934  -0.54828  -0.54456  -0.54157
 Alpha  occ. eigenvalues --   -0.53199  -0.52734  -0.52428  -0.52188  -0.51574
 Alpha  occ. eigenvalues --   -0.51043  -0.50371  -0.49855  -0.49319  -0.48601
 Alpha  occ. eigenvalues --   -0.48264  -0.47300  -0.46540  -0.44787  -0.42781
 Alpha  occ. eigenvalues --   -0.41902  -0.41598  -0.41140  -0.39176  -0.38929
 Alpha  occ. eigenvalues --   -0.38379  -0.38114  -0.34833
 Alpha virt. eigenvalues --    0.17075   0.18850   0.19566   0.20053   0.20451
 Alpha virt. eigenvalues --    0.21503   0.21856   0.23001   0.23442   0.23858
 Alpha virt. eigenvalues --    0.24917   0.25483   0.26366   0.26967   0.27475

 Mulliken atomic charges:
              1
     1  C   -0.278629
     2  N   -0.785439
     3  C    0.821008
     4  O   -0.626202
     5  C    0.098302
     6  C   -0.472185
     7  C   -0.331323
     8  C   -0.321424
     9  C   -0.354717
    10  C   -0.178000
    11  C   -0.174927
    12  C   -0.354764
    13  C   -0.310819
    14  C   -0.329283
    15  C    0.091125
    16  C   -0.509639
    17  N   -0.787588
    18  C    0.767258
    19  C   -0.595735
    20  O   -0.613762
    21  C    0.820441
    22  O   -0.639159
    23  N   -0.806095
    24  C   -0.275565
    25  N   -0.842577
    26  C    0.744585
    27  C   -0.588627
    28  O   -0.591618
    29  H    0.186145
    30  H    0.197724
    31  H    0.161430
    32  H    0.390060
    33  H    0.198797
    34  H    0.143564
    35  H    0.212606
    36  H    0.162591
    37  H    0.181173
    38  H    0.164406
    39  H    0.191179
    40  H    0.194660
    41  H    0.176848
    42  H    0.173844
    43  H    0.171327
    44  H    0.177942
    45  H    0.161424
    46  H    0.152088
    47  H    0.199317
    48  H    0.173477
    49  H    0.184724
    50  H    0.183699
    51  H    0.148289
    52  H    0.226908
    53  H    0.389779
    54  H    0.211387
    55  H    0.209624
    56  H    0.176371
    57  H    0.395411
    58  H    0.164849
    59  H    0.199361
    60  H    0.185386
    61  H    0.382283
    62  H    0.218542
    63  H    0.176982
    64  H    0.201163
 Sum of Mulliken atomic charges =   0.00000

 Dipole moment (field-independent basis, Debye):
    X=             -1.7788    Y=             -4.3014    Z=              6.7400  Tot=              8.1911
 Quadrupole moment (field-independent basis, Debye-Ang):
   XX=           -205.0148   YY=           -154.9399   ZZ=           -172.5763
   XY=             11.1192   XZ=            -22.1470   YZ=             10.8144

 Normal termination of Gaussian 09 at Thu Dec  5 17:23:22 2019.
