 Gaussian 09, Revision A.02,
 Gaussian 09:  EM64L-G09RevA.02 11-Jun-2009

 ---------------------------------
 #SP HF/6-31G* Geom=(ModRedundant)
 ---------------------------------

 ------------
 paramfit run
 ------------
 Symbolic Z-matrix:
 Charge =  0 Multiplicity = 1

                         Standard orientation:
 ---------------------------------------------------------------------
 Center     Atomic      Atomic             Coordinates (Angstroms)
 Number     Number       Type             X           Y           Z
 ---------------------------------------------------------------------
      1          6    20001001       -6.937641    2.304714    1.575696
      2          7    20001014       -6.176395    1.121741    1.231713
      3          6    20001002       -5.144076    1.212875    0.361012
      4          8    20001024       -4.676708    2.264724    0.022002
      5          6    90000001       -4.498878   -0.114614   -0.075883
      6          6    90000002       -3.699984    0.103027   -1.365164
      7          6    90000002       -3.600848   -0.672137    1.061795
      8          6    90000002       -2.406682    0.167516    1.550247
      9          6    90000002       -1.034798   -0.528987    1.647478
     10          6    20001004       -0.565318   -1.145951    0.350860
     11          6    20001004        0.283127   -0.632973   -0.525355
     12          6    90000002        0.991866    0.697893   -0.446375
     13          6    90000002        2.467010    0.605679   -0.016245
     14          6    90000002        3.317455   -0.220817   -0.990187
     15          6    90000002        4.852819   -0.247419   -0.774328
     16          6    90000002        5.454827   -1.185406   -1.833203
     17          7    20001014        5.371931    1.099611   -0.968142
     18          6    20001002        6.674644    1.407185   -0.700944
     19          6    20001001        6.969159    2.884925   -0.581153
     20          8    20001024        7.527051    0.573267   -0.570090
     21          6    20001002        5.136937   -0.670442    0.684801
     22          8    20001024        5.105711    0.143104    1.568598
     23          7    20001014        5.314670   -1.987050    0.927563
     24          6    20001001        5.634859   -2.445939    2.263640
     25          7    20001014       -5.529145   -1.144264   -0.275382
     26          6    20001002       -6.545250   -1.033243   -1.178088
     27          6    20001001       -7.277928   -2.323273   -1.483249
     28          8    20001024       -6.847732    0.009190   -1.686003
     29          1    20001035       -7.488413    2.691087    0.725805
     30          1    20001035       -6.271432    3.076450    1.932505
     31          1    20001035       -7.633623    2.050432    2.365192
     32          1    20001029       -6.647514    0.248429    1.272443
     33          1    20001034       -2.954002    0.872559   -1.237635
     34          1    20001034       -3.208920   -0.823741   -1.646580
     35          1    20001034       -4.355474    0.411481   -2.166485
     36          1    20001034       -3.199483   -1.610308    0.685017
     37          1    20001034       -4.233858   -0.929205    1.905296
     38          1    20001034       -2.304479    0.992277    0.851002
     39          1    20001034       -2.636205    0.614733    2.511855
     40          1    20001034       -1.059641   -1.292533    2.414125
     41          1    20001034       -0.322118    0.213899    1.988127
     42          1    20001033       -0.975144   -2.118439    0.130805
     43          1    20001033        0.506378   -1.224065   -1.399729
     44          1    20001034        0.478229    1.357011    0.242977
     45          1    20001034        0.936595    1.177801   -1.422709
     46          1    20001034        2.850647    1.618648    0.067966
     47          1    20001034        2.523689    0.182243    0.977896
     48          1    20001034        3.153706    0.135952   -2.004798
     49          1    20001034        2.974182   -1.248335   -0.963388
     50          1    20001034        5.291829   -0.752300   -2.813219
     51          1    20001034        4.968126   -2.155132   -1.821556
     52          1    20001034        6.517824   -1.313700   -1.694214
     53          1    20001029        4.726176    1.833705   -0.786984
     54          1    20001034        8.023355    3.049450   -0.744445
     55          1    20001034        6.718073    3.207233    0.424928
     56          1    20001034        6.391258    3.474702   -1.284412
     57          1    20001029        5.570279   -2.576891    0.171216
     58          1    20001035        5.615933   -3.527838    2.271152
     59          1    20001035        4.899251   -2.075791    2.962567
     60          1    20001035        6.613966   -2.103824    2.583107
     61          1    20001029       -5.268119   -2.069109   -0.014467
     62          1    20001034       -8.258099   -2.085067   -1.869895
     63          1    20001034       -7.373955   -2.957549   -0.609165
     64          1    20001034       -6.730835   -2.872493   -2.242755
 ---------------------------------------------------------------------

 SCF Done:  E(RHF) =  -1295.61863978     A.U. after   14 cycles

 The electronic state is 1-A.
 Alpha  occ. eigenvalues --  -20.53499 -20.52103 -20.51779 -20.51512 -15.59462
 Alpha  occ. eigenvalues --  -15.58111 -15.57588 -15.57058 -11.35836 -11.34304
 Alpha  occ. eigenvalues --  -11.33856 -11.33487 -11.28907 -11.28689 -11.25260
 Alpha  occ. eigenvalues --  -11.24546 -11.24271 -11.23859 -11.23540 -11.22853
 Alpha  occ. eigenvalues --  -11.22802 -11.22698 -11.22649 -11.22530 -11.22518
 Alpha  occ. eigenvalues --  -11.22471 -11.21899 -11.20504  -1.40424  -1.39486
 Alpha  occ. eigenvalues --   -1.38298  -1.38216  -1.25247  -1.23630  -1.22821
 Alpha  occ. eigenvalues --   -1.21670  -1.11114  -1.09307  -1.07329  -1.04404
 Alpha  occ. eigenvalues --   -1.01313  -0.99342  -0.98791  -0.95319  -0.95135
 Alpha  occ. eigenvalues --   -0.94729  -0.92322  -0.87079  -0.85693  -0.83089
 Alpha  occ. eigenvalues --   -0.81553  -0.79614  -0.78825  -0.77027  -0.76788
 Alpha  occ. eigenvalues --   -0.72265  -0.71416  -0.70912  -0.69060  -0.68133
 Alpha  occ. eigenvalues --   -0.66864  -0.65713  -0.64586  -0.63935  -0.63615
 Alpha  occ. eigenvalues --   -0.62864  -0.62316  -0.61982  -0.61523  -0.61309
 Alpha  occ. eigenvalues --   -0.60876  -0.59538  -0.59431  -0.58897  -0.58738
 Alpha  occ. eigenvalues --   -0.57943  -0.57202  -0.57047  -0.56505  -0.56016
 Alpha  occ. eigenvalues --   -0.55341  -0.55143  -0.54880  -0.54302  -0.53891
 Alpha  occ. eigenvalues --   -0.53201  -0.52664  -0.52386  -0.51985  -0.51882
 Alpha  occ. eigenvalues --   -0.51090  -0.50378  -0.49895  -0.49113  -0.48859
 Alpha  occ. eigenvalues --   -0.48606  -0.46791  -0.46551  -0.45015  -0.42645
 Alpha  occ. eigenvalues --   -0.41859  -0.41640  -0.41128  -0.39022  -0.38983
 Alpha  occ. eigenvalues --   -0.38458  -0.37880  -0.35021
 Alpha virt. eigenvalues --    0.16685   0.18948   0.19544   0.20315   0.20795
 Alpha virt. eigenvalues --    0.21485   0.21848   0.22916   0.23518   0.23820
 Alpha virt. eigenvalues --    0.24819   0.25716   0.26523   0.26839   0.27210

 Mulliken atomic charges:
              1
     1  C   -0.278293
     2  N   -0.782545
     3  C    0.817902
     4  O   -0.623994
     5  C    0.092087
     6  C   -0.466394
     7  C   -0.326773
     8  C   -0.325972
     9  C   -0.352020
    10  C   -0.175689
    11  C   -0.168157
    12  C   -0.358420
    13  C   -0.311854
    14  C   -0.329515
    15  C    0.091101
    16  C   -0.509779
    17  N   -0.787286
    18  C    0.767070
    19  C   -0.595810
    20  O   -0.614257
    21  C    0.820225
    22  O   -0.639450
    23  N   -0.806370
    24  C   -0.274980
    25  N   -0.842228
    26  C    0.744871
    27  C   -0.588602
    28  O   -0.591527
    29  H    0.184651
    30  H    0.198184
    31  H    0.161253
    32  H    0.389602
    33  H    0.199124
    34  H    0.145118
    35  H    0.208837
    36  H    0.158019
    37  H    0.180282
    38  H    0.197352
    39  H    0.175405
    40  H    0.166097
    41  H    0.181403
    42  H    0.167869
    43  H    0.174060
    44  H    0.182618
    45  H    0.167956
    46  H    0.154457
    47  H    0.195945
    48  H    0.175813
    49  H    0.183091
    50  H    0.184964
    51  H    0.147740
    52  H    0.226802
    53  H    0.390459
    54  H    0.211311
    55  H    0.209281
    56  H    0.177700
    57  H    0.395744
    58  H    0.164411
    59  H    0.197360
    60  H    0.185871
    61  H    0.381923
    62  H    0.218472
    63  H    0.177000
    64  H    0.200488
 Sum of Mulliken atomic charges =   0.00000

 Dipole moment (field-independent basis, Debye):
    X=             -2.7114    Y=             -6.2650    Z=              0.6858  Tot=              6.8610
 Quadrupole moment (field-independent basis, Debye-Ang):
   XX=           -195.9494   YY=           -156.6070   ZZ=           -173.8549
   XY=             25.2710   XZ=            -23.4770   YZ=              1.5149

 Normal termination of Gaussian 09 at Thu Dec  5 16:24:40 2019.
