 Gaussian 09, Revision A.02,
 Gaussian 09:  EM64L-G09RevA.02 11-Jun-2009

 ---------------------------------
 #SP HF/6-31G* Geom=(ModRedundant)
 ---------------------------------

 ------------
 paramfit run
 ------------
 Symbolic Z-matrix:
 Charge =  0 Multiplicity = 1

                         Standard orientation:
 ---------------------------------------------------------------------
 Center     Atomic      Atomic             Coordinates (Angstroms)
 Number     Number       Type             X           Y           Z
 ---------------------------------------------------------------------
      1          6    20001001        6.905446    2.844992    0.647030
      2          7    20001014        6.123516    1.768433    0.075322
      3          6    20001002        5.439281    0.927186    0.885405
      4          8    20001024        5.261427    1.154933    2.049985
      5          6    90000001        4.773912   -0.284238    0.207820
      6          6    90000002        4.457895   -1.351589    1.260786
      7          6    90000002        3.494154    0.163321   -0.549487
      8          6    90000002        2.344902    0.811116    0.243745
      9          6    90000002        1.004656    1.027375   -0.486741
     10          6    20001004        0.408572   -0.234973   -1.064180
     11          6    20001004       -0.539217   -0.993227   -0.537393
     12          6    90000002       -1.259431   -0.784640    0.773156
     13          6    90000002       -2.677231   -0.202155    0.631324
     14          6    90000002       -3.613105   -1.111388   -0.176358
     15          6    90000002       -5.115219   -0.732610   -0.245821
     16          6    90000002       -5.811344   -1.757485   -1.156035
     17          7    20001014       -5.676865   -0.814784    1.095571
     18          6    20001002       -6.948284   -0.396574    1.363246
     19          6    20001001       -7.255049   -0.186142    2.828312
     20          8    20001024       -7.766047   -0.208438    0.505919
     21          6    20001002       -5.231481    0.730348   -0.730553
     22          8    20001024       -5.119396    1.637778    0.049149
     23          7    20001014       -5.357688    0.937454   -2.059147
     24          6    20001001       -5.522501    2.280614   -2.575826
     25          7    20001014        5.651235   -0.833739   -0.836107
     26          6    20001002        6.902718   -1.318776   -0.594855
     27          6    20001001        7.495207   -2.153041   -1.711581
     28          8    20001024        7.498751   -1.093623    0.420128
     29          1    20001035        7.744304    2.472089    1.223406
     30          1    20001035        6.282776    3.443911    1.295337
     31          1    20001035        7.275200    3.468518   -0.157240
     32          1    20001029        6.424188    1.399435   -0.796299
     33          1    20001034        3.831469   -0.954027    2.044666
     34          1    20001034        3.947887   -2.185578    0.787931
     35          1    20001034        5.368415   -1.709672    1.718668
     36          1    20001034        3.096380   -0.738011   -1.010570
     37          1    20001034        3.787558    0.817621   -1.364401
     38          1    20001034        2.152324    0.160850    1.092088
     39          1    20001034        2.669230    1.759675    0.658982
     40          1    20001034        1.126540    1.755403   -1.278248
     41          1    20001034        0.319690    1.472561    0.226326
     42          1    20001033        0.809817   -0.537013   -2.018061
     43          1    20001033       -0.845208   -1.861621   -1.099553
     44          1    20001034       -0.686147   -0.128579    1.416892
     45          1    20001034       -1.319258   -1.741055    1.291119
     46          1    20001034       -3.067933   -0.036242    1.631424
     47          1    20001034       -2.617902    0.774384    0.169064
     48          1    20001034       -3.567015   -2.122488    0.222495
     49          1    20001034       -3.250205   -1.163266   -1.196144
     50          1    20001034       -5.763643   -2.731054   -0.682256
     51          1    20001034       -5.308591   -1.837532   -2.114270
     52          1    20001034       -6.850445   -1.510070   -1.313495
     53          1    20001029       -5.028803   -0.674747    1.836596
     54          1    20001034       -8.323574   -0.228120    2.975123
     55          1    20001034       -6.902176    0.799224    3.117553
     56          1    20001034       -6.767791   -0.923169    3.457403
     57          1    20001029       -5.683052    0.189840   -2.625293
     58          1    20001035       -5.483078    2.242326   -3.656520
     59          1    20001035       -4.722270    2.910595   -2.216132
     60          1    20001035       -6.467241    2.717275   -2.268339
     61          1    20001029        5.188439   -1.185793   -1.644454
     62          1    20001034        8.570910   -2.155698   -1.612442
     63          1    20001034        7.219365   -1.781723   -2.692186
     64          1    20001034        7.137302   -3.173673   -1.622049
 ---------------------------------------------------------------------

 SCF Done:  E(RHF) =  -1295.62298134     A.U. after   14 cycles

 The electronic state is 1-A.
 Alpha  occ. eigenvalues --  -20.53532 -20.52209 -20.51869 -20.51483 -15.59509
 Alpha  occ. eigenvalues --  -15.58192 -15.57708 -15.57077 -11.35872 -11.34411
 Alpha  occ. eigenvalues --  -11.33950 -11.33499 -11.29012 -11.28812 -11.25314
 Alpha  occ. eigenvalues --  -11.24557 -11.24290 -11.23938 -11.23692 -11.23007
 Alpha  occ. eigenvalues --  -11.22940 -11.22915 -11.22809 -11.22698 -11.22642
 Alpha  occ. eigenvalues --  -11.22621 -11.22019 -11.20704  -1.40457  -1.39584
 Alpha  occ. eigenvalues --   -1.38313  -1.38283  -1.25293  -1.23747  -1.22902
 Alpha  occ. eigenvalues --   -1.21687  -1.11224  -1.09391  -1.07480  -1.04544
 Alpha  occ. eigenvalues --   -1.01393  -0.99420  -0.98884  -0.95388  -0.95186
 Alpha  occ. eigenvalues --   -0.94813  -0.92473  -0.87202  -0.85813  -0.83138
 Alpha  occ. eigenvalues --   -0.81638  -0.79717  -0.78906  -0.77124  -0.76803
 Alpha  occ. eigenvalues --   -0.72390  -0.71523  -0.70948  -0.69182  -0.68207
 Alpha  occ. eigenvalues --   -0.67008  -0.65528  -0.64660  -0.63996  -0.63669
 Alpha  occ. eigenvalues --   -0.63170  -0.62300  -0.62155  -0.61625  -0.61377
 Alpha  occ. eigenvalues --   -0.60857  -0.59867  -0.59481  -0.58966  -0.58814
 Alpha  occ. eigenvalues --   -0.57828  -0.57676  -0.56923  -0.56601  -0.56157
 Alpha  occ. eigenvalues --   -0.55259  -0.55171  -0.54958  -0.54244  -0.53662
 Alpha  occ. eigenvalues --   -0.53255  -0.53173  -0.52470  -0.51941  -0.51848
 Alpha  occ. eigenvalues --   -0.51416  -0.50779  -0.50006  -0.49273  -0.48760
 Alpha  occ. eigenvalues --   -0.48649  -0.47054  -0.46710  -0.45196  -0.42694
 Alpha  occ. eigenvalues --   -0.41910  -0.41744  -0.41233  -0.39079  -0.39057
 Alpha  occ. eigenvalues --   -0.38551  -0.37901  -0.35216
 Alpha virt. eigenvalues --    0.16610   0.18931   0.19441   0.20270   0.21035
 Alpha virt. eigenvalues --    0.21394   0.21829   0.22959   0.23567   0.24177
 Alpha virt. eigenvalues --    0.24793   0.25606   0.26291   0.26769   0.27390

 Mulliken atomic charges:
              1
     1  C   -0.278202
     2  N   -0.782500
     3  C    0.816444
     4  O   -0.623947
     5  C    0.102429
     6  C   -0.474335
     7  C   -0.330198
     8  C   -0.311979
     9  C   -0.351609
    10  C   -0.176646
    11  C   -0.171489
    12  C   -0.357412
    13  C   -0.311353
    14  C   -0.329508
    15  C    0.091214
    16  C   -0.509733
    17  N   -0.787433
    18  C    0.767074
    19  C   -0.595799
    20  O   -0.613944
    21  C    0.820199
    22  O   -0.639180
    23  N   -0.806378
    24  C   -0.275191
    25  N   -0.843004
    26  C    0.744926
    27  C   -0.588590
    28  O   -0.591444
    29  H    0.184881
    30  H    0.198034
    31  H    0.161322
    32  H    0.389652
    33  H    0.199994
    34  H    0.145047
    35  H    0.212033
    36  H    0.162015
    37  H    0.172529
    38  H    0.173086
    39  H    0.186138
    40  H    0.169308
    41  H    0.183612
    42  H    0.169542
    43  H    0.173376
    44  H    0.181518
    45  H    0.165047
    46  H    0.154326
    47  H    0.197067
    48  H    0.174837
    49  H    0.183544
    50  H    0.184517
    51  H    0.147850
    52  H    0.227151
    53  H    0.390176
    54  H    0.211584
    55  H    0.209604
    56  H    0.177215
    57  H    0.395715
    58  H    0.164639
    59  H    0.197732
    60  H    0.186044
    61  H    0.382058
    62  H    0.218616
    63  H    0.176942
    64  H    0.200838
 Sum of Mulliken atomic charges =   0.00000

 Dipole moment (field-independent basis, Debye):
    X=              0.9904    Y=             -3.0375    Z=             -6.4117  Tot=              7.1636
 Quadrupole moment (field-independent basis, Debye-Ang):
   XX=           -214.7217   YY=           -167.5749   ZZ=           -160.3027
   XY=              6.8494   XZ=            -33.6651   YZ=             -2.0641

 Normal termination of Gaussian 09 at Thu Dec  5 16:04:20 2019.
