 Gaussian 09, Revision A.02,
 Gaussian 09:  EM64L-G09RevA.02 11-Jun-2009

 ---------------------------------
 #SP HF/6-31G* Geom=(ModRedundant)
 ---------------------------------

 ------------
 paramfit run
 ------------
 Symbolic Z-matrix:
 Charge =  0 Multiplicity = 1

                         Standard orientation:
 ---------------------------------------------------------------------
 Center     Atomic      Atomic             Coordinates (Angstroms)
 Number     Number       Type             X           Y           Z
 ---------------------------------------------------------------------
      1          6    20001001        6.572227    2.929851    0.885674
      2          7    20001014        5.899056    1.814193    0.253697
      3          6    20001002        5.426777    0.795097    1.009014
      4          8    20001024        5.335686    0.865390    2.203378
      5          6    90000001        4.877067   -0.423646    0.246209
      6          6    90000002        4.824011   -1.634515    1.183664
      7          6    90000002        3.477120   -0.098777   -0.342190
      8          6    90000002        2.332286    0.274978    0.616610
      9          6    90000002        1.029133    0.817900   -0.002795
     10          6    20001004        0.395949   -0.109387   -1.013484
     11          6    20001004       -0.603050   -0.954531   -0.817293
     12          6    90000002       -1.357369   -1.202179    0.467007
     13          6    90000002       -2.741312   -0.531001    0.528537
     14          6    90000002       -3.689675   -1.027134   -0.571179
     15          6    90000002       -5.169602   -0.567021   -0.518678
     16          6    90000002       -5.880399   -1.146126   -1.752719
     17          7    20001014       -5.779988   -1.104728    0.689556
     18          6    20001002       -7.039327   -0.744491    1.073422
     19          6    20001001       -7.386074   -1.069965    2.508216
     20          8    20001024       -7.817800   -0.209956    0.333560
     21          6    20001002       -5.202067    0.975760   -0.432093
     22          8    20001024       -5.075270    1.525954    0.628632
     23          7    20001014       -5.273124    1.662738   -1.592694
     24          6    20001001       -5.358456    3.108689   -1.580662
     25          7    20001014        5.714987   -0.715514   -0.926025
     26          6    20001002        7.040782   -1.025678   -0.850269
     27          6    20001001        7.631687   -1.633131   -2.105638
     28          8    20001024        7.697082   -0.822802    0.131694
     29          1    20001035        7.509252    2.630130    1.340759
     30          1    20001035        5.938367    3.352218    1.651540
     31          1    20001035        6.766582    3.686147    0.135610
     32          1    20001029        6.160617    1.592333   -0.678317
     33          1    20001034        4.228829   -1.425168    2.059372
     34          1    20001034        4.393785   -2.480835    0.656515
     35          1    20001034        5.817612   -1.895840    1.517420
     36          1    20001034        3.168215   -0.995264   -0.875209
     37          1    20001034        3.590829    0.677163   -1.092701
     38          1    20001034        2.081208   -0.629611    1.162777
     39          1    20001034        2.685332    0.985436    1.356869
     40          1    20001034        1.211251    1.777733   -0.468542
     41          1    20001034        0.341286    1.007326    0.813793
     42          1    20001033        0.815336   -0.061836   -2.005435
     43          1    20001033       -0.929090   -1.537631   -1.664320
     44          1    20001034       -0.776992   -0.860937    1.315643
     45          1    20001034       -1.478637   -2.277091    0.595274
     46          1    20001034       -3.157991   -0.722501    1.513464
     47          1    20001034       -2.621527    0.542176    0.459454
     48          1    20001034       -3.703629   -2.114947   -0.572192
     49          1    20001034       -3.294854   -0.720988   -1.532814
     50          1    20001034       -5.893588   -2.226683   -1.670234
     51          1    20001034       -5.349351   -0.896449   -2.665425
     52          1    20001034       -6.901078   -0.801242   -1.823483
     53          1    20001029       -5.151924   -1.282481    1.439658
     54          1    20001034       -8.459797   -1.103864    2.613246
     55          1    20001034       -6.998534   -0.280653    3.145337
     56          1    20001034       -6.954902   -2.012150    2.828780
     57          1    20001029       -5.612835    1.194321   -2.399226
     58          1    20001035       -5.283876    3.467665   -2.598746
     59          1    20001035       -4.542979    3.517457   -1.002274
     60          1    20001035       -6.292167    3.453416   -1.148108
     61          1    20001029        5.228720   -1.044920   -1.730129
     62          1    20001034        8.701173   -1.481146   -2.097039
     63          1    20001034        7.208783   -1.204681   -3.007377
     64          1    20001034        7.434236   -2.700265   -2.111915
 ---------------------------------------------------------------------

 SCF Done:  E(RHF) =  -1295.62343013     A.U. after   14 cycles

 The electronic state is 1-A.
 Alpha  occ. eigenvalues --  -20.53548 -20.52221 -20.51867 -20.51551 -15.59520
 Alpha  occ. eigenvalues --  -15.58187 -15.57721 -15.57125 -11.35885 -11.34424
 Alpha  occ. eigenvalues --  -11.33949 -11.33557 -11.29037 -11.28819 -11.25300
 Alpha  occ. eigenvalues --  -11.24591 -11.24298 -11.23956 -11.23701 -11.22980
 Alpha  occ. eigenvalues --  -11.22936 -11.22880 -11.22779 -11.22705 -11.22638
 Alpha  occ. eigenvalues --  -11.22607 -11.22028 -11.20741  -1.40476  -1.39589
 Alpha  occ. eigenvalues --   -1.38357  -1.38318  -1.25315  -1.23758  -1.22897
 Alpha  occ. eigenvalues --   -1.21733  -1.11202  -1.09388  -1.07491  -1.04549
 Alpha  occ. eigenvalues --   -1.01397  -0.99432  -0.98896  -0.95384  -0.95221
 Alpha  occ. eigenvalues --   -0.94816  -0.92459  -0.87214  -0.85830  -0.83129
 Alpha  occ. eigenvalues --   -0.81634  -0.79723  -0.78916  -0.77126  -0.76851
 Alpha  occ. eigenvalues --   -0.72363  -0.71521  -0.71007  -0.69199  -0.68204
 Alpha  occ. eigenvalues --   -0.67045  -0.65446  -0.64687  -0.63989  -0.63816
 Alpha  occ. eigenvalues --   -0.63020  -0.62298  -0.62184  -0.61634  -0.61377
 Alpha  occ. eigenvalues --   -0.60783  -0.60061  -0.59468  -0.58969  -0.58797
 Alpha  occ. eigenvalues --   -0.57829  -0.57735  -0.56853  -0.56591  -0.56185
 Alpha  occ. eigenvalues --   -0.55273  -0.55102  -0.54910  -0.54255  -0.53857
 Alpha  occ. eigenvalues --   -0.53345  -0.53178  -0.52405  -0.51995  -0.51784
 Alpha  occ. eigenvalues --   -0.51458  -0.50788  -0.50014  -0.49322  -0.48750
 Alpha  occ. eigenvalues --   -0.48439  -0.47270  -0.46723  -0.45203  -0.42715
 Alpha  occ. eigenvalues --   -0.41936  -0.41748  -0.41245  -0.39096  -0.39082
 Alpha  occ. eigenvalues --   -0.38551  -0.37930  -0.35170
 Alpha virt. eigenvalues --    0.16752   0.18906   0.19436   0.20212   0.20900
 Alpha virt. eigenvalues --    0.21380   0.21793   0.22978   0.23589   0.24293
 Alpha virt. eigenvalues --    0.24764   0.25279   0.26104   0.26840   0.27393

 Mulliken atomic charges:
              1
     1  C   -0.278315
     2  N   -0.781879
     3  C    0.816825
     4  O   -0.624511
     5  C    0.102874
     6  C   -0.473577
     7  C   -0.331536
     8  C   -0.315142
     9  C   -0.352676
    10  C   -0.175556
    11  C   -0.172896
    12  C   -0.356827
    13  C   -0.311157
    14  C   -0.329446
    15  C    0.091214
    16  C   -0.509712
    17  N   -0.787478
    18  C    0.767103
    19  C   -0.595788
    20  O   -0.613861
    21  C    0.820221
    22  O   -0.639126
    23  N   -0.806352
    24  C   -0.275266
    25  N   -0.843546
    26  C    0.744919
    27  C   -0.588533
    28  O   -0.591535
    29  H    0.185098
    30  H    0.198073
    31  H    0.161459
    32  H    0.389891
    33  H    0.200439
    34  H    0.143816
    35  H    0.211741
    36  H    0.163457
    37  H    0.171078
    38  H    0.167060
    39  H    0.196459
    40  H    0.171735
    41  H    0.182893
    42  H    0.170165
    43  H    0.172978
    44  H    0.180701
    45  H    0.163998
    46  H    0.153924
    47  H    0.197474
    48  H    0.174487
    49  H    0.183781
    50  H    0.184333
    51  H    0.147935
    52  H    0.227174
    53  H    0.390064
    54  H    0.211613
    55  H    0.209671
    56  H    0.176990
    57  H    0.395680
    58  H    0.164697
    59  H    0.197954
    60  H    0.186014
    61  H    0.382209
    62  H    0.218624
    63  H    0.176930
    64  H    0.200964
 Sum of Mulliken atomic charges =   0.00000

 Dipole moment (field-independent basis, Debye):
    X=              0.5930    Y=             -2.3035    Z=             -6.9897  Tot=              7.3833
 Quadrupole moment (field-independent basis, Debye-Ang):
   XX=           -219.9551   YY=           -162.4727   ZZ=           -163.9182
   XY=              8.8749   XZ=            -31.2017   YZ=             -6.6525

 Normal termination of Gaussian 09 at Thu Dec  5 17:58:29 2019.
