 Gaussian 09, Revision A.02,
 Gaussian 09:  EM64L-G09RevA.02 11-Jun-2009

 ---------------------------------
 #SP HF/6-31G* Geom=(ModRedundant)
 ---------------------------------

 ------------
 paramfit run
 ------------
 Symbolic Z-matrix:
 Charge =  0 Multiplicity = 1

                         Standard orientation:
 ---------------------------------------------------------------------
 Center     Atomic      Atomic             Coordinates (Angstroms)
 Number     Number       Type             X           Y           Z
 ---------------------------------------------------------------------
      1          6    20001001       -3.694056    2.846031    0.633126
      2          7    20001014       -4.072896    1.448469    0.609787
      3          6    20001002       -4.279883    0.824876   -0.573597
      4          8    20001024       -3.950653    1.305478   -1.622585
      5          6    90000001       -4.840380   -0.606996   -0.503082
      6          6    90000002       -5.444462   -0.988872   -1.858478
      7          6    90000002       -3.722385   -1.598178   -0.079704
      8          6    90000002       -2.474513   -1.741085   -0.969664
      9          6    90000002       -1.376804   -0.666427   -0.840111
     10          6    20001004       -0.833197   -0.508671    0.560561
     11          6    20001004        0.276167   -1.030483    1.058333
     12          6    90000002        1.273685   -1.914535    0.348991
     13          6    90000002        2.558407   -1.191574   -0.094158
     14          6    90000002        3.343626   -0.602637    1.085460
     15          6    90000002        4.744997   -0.002938    0.800559
     16          6    90000002        5.283576    0.568214    2.122364
     17          7    20001014        5.621920   -1.071106    0.340607
     18          6    20001002        6.879326   -0.811776   -0.122787
     19          6    20001001        7.515024   -1.937657   -0.905784
     20          8    20001024        7.443820    0.228517    0.072863
     21          6    20001002        4.612998    1.037621   -0.334579
     22          8    20001024        4.616833    0.685015   -1.483309
     23          7    20001014        4.392861    2.321787    0.021004
     24          6    20001001        4.310283    3.355145   -0.990705
     25          7    20001014       -5.851309   -0.710177    0.559371
     26          6    20001002       -6.999070    0.025764    0.585975
     27          6    20001001       -8.059118   -0.470912    1.547082
     28          8    20001024       -7.156907    1.001974   -0.090960
     29          1    20001035       -4.486444    3.484917    0.260440
     30          1    20001035       -2.816028    2.996404    0.022243
     31          1    20001035       -3.462528    3.124408    1.653545
     32          1    20001029       -4.578817    1.100002    1.390108
     33          1    20001034       -4.717220   -0.896349   -2.650621
     34          1    20001034       -5.798343   -2.014800   -1.820024
     35          1    20001034       -6.273782   -0.339173   -2.097317
     36          1    20001034       -4.198230   -2.575386   -0.036627
     37          1    20001034       -3.419765   -1.362354    0.935721
     38          1    20001034       -2.025468   -2.697443   -0.717958
     39          1    20001034       -2.768171   -1.811336   -2.011875
     40          1    20001034       -1.750391    0.289202   -1.184448
     41          1    20001034       -0.579512   -0.939425   -1.522485
     42          1    20001033       -1.427526    0.106517    1.216633
     43          1    20001033        0.509356   -0.803688    2.086899
     44          1    20001034        0.820505   -2.366808   -0.524819
     45          1    20001034        1.540252   -2.736681    1.012023
     46          1    20001034        3.165556   -1.904496   -0.645056
     47          1    20001034        2.304181   -0.410274   -0.798267
     48          1    20001034        3.483530   -1.369135    1.844697
     49          1    20001034        2.748707    0.180302    1.540900
     50          1    20001034        5.436974   -0.249637    2.816749
     51          1    20001034        4.571013    1.249688    2.575385
     52          1    20001034        6.227547    1.073489    1.983240
     53          1    20001029        5.164697   -1.834285   -0.103484
     54          1    20001034        8.586592   -1.808042   -0.904222
     55          1    20001034        7.159877   -1.889717   -1.930820
     56          1    20001034        7.261361   -2.911061   -0.500173
     57          1    20001029        4.633386    2.605309    0.941370
     58          1    20001035        4.011786    4.280514   -0.515826
     59          1    20001035        3.570819    3.083844   -1.729769
     60          1    20001035        5.260263    3.502572   -1.494249
     61          1    20001029       -5.868373   -1.574601    1.053364
     62          1    20001034       -8.724734    0.345900    1.785300
     63          1    20001034       -7.631102   -0.871609    2.459110
     64          1    20001034       -8.634069   -1.256885    1.068042
 ---------------------------------------------------------------------

 SCF Done:  E(RHF) =  -1295.62200918     A.U. after   14 cycles

 The electronic state is 1-A.
 Alpha  occ. eigenvalues --  -20.53666 -20.52022 -20.51878 -20.51551 -15.59625
 Alpha  occ. eigenvalues --  -15.57858 -15.57584 -15.57493 -11.35984 -11.34229
 Alpha  occ. eigenvalues --  -11.33903 -11.33638 -11.29043 -11.28532 -11.24940
 Alpha  occ. eigenvalues --  -11.24934 -11.24372 -11.24014 -11.23358 -11.22692
 Alpha  occ. eigenvalues --  -11.22504 -11.22495 -11.22307 -11.22153 -11.21943
 Alpha  occ. eigenvalues --  -11.21777 -11.21485 -11.20865  -1.40605  -1.39334
 Alpha  occ. eigenvalues --   -1.38755  -1.38056  -1.25453  -1.23518  -1.22570
 Alpha  occ. eigenvalues --   -1.22127  -1.10722  -1.09246  -1.07157  -1.04196
 Alpha  occ. eigenvalues --   -1.01215  -0.99314  -0.98716  -0.95558  -0.95103
 Alpha  occ. eigenvalues --   -0.94547  -0.92159  -0.87255  -0.85678  -0.82818
 Alpha  occ. eigenvalues --   -0.81327  -0.79461  -0.78752  -0.77224  -0.76838
 Alpha  occ. eigenvalues --   -0.71857  -0.71288  -0.71087  -0.68943  -0.67959
 Alpha  occ. eigenvalues --   -0.66690  -0.65873  -0.64522  -0.63940  -0.63687
 Alpha  occ. eigenvalues --   -0.62599  -0.62340  -0.61732  -0.61389  -0.61158
 Alpha  occ. eigenvalues --   -0.60919  -0.59890  -0.59317  -0.58692  -0.58416
 Alpha  occ. eigenvalues --   -0.58286  -0.57792  -0.56546  -0.56380  -0.56196
 Alpha  occ. eigenvalues --   -0.55482  -0.54829  -0.54718  -0.54587  -0.53916
 Alpha  occ. eigenvalues --   -0.53069  -0.52871  -0.52451  -0.52140  -0.51535
 Alpha  occ. eigenvalues --   -0.51041  -0.50292  -0.49747  -0.49240  -0.48543
 Alpha  occ. eigenvalues --   -0.48326  -0.46852  -0.46357  -0.44482  -0.42889
 Alpha  occ. eigenvalues --   -0.41952  -0.41468  -0.41036  -0.39313  -0.38802
 Alpha  occ. eigenvalues --   -0.38354  -0.38242  -0.34442
 Alpha virt. eigenvalues --    0.17381   0.18784   0.19685   0.19936   0.20208
 Alpha virt. eigenvalues --    0.21627   0.22005   0.23196   0.23251   0.23965
 Alpha virt. eigenvalues --    0.25361   0.25672   0.26573   0.27147   0.27680

 Mulliken atomic charges:
              1
     1  C   -0.279887
     2  N   -0.783011
     3  C    0.821748
     4  O   -0.628112
     5  C    0.102769
     6  C   -0.472754
     7  C   -0.334687
     8  C   -0.310476
     9  C   -0.378279
    10  C   -0.179460
    11  C   -0.177443
    12  C   -0.353210
    13  C   -0.310510
    14  C   -0.329028
    15  C    0.091030
    16  C   -0.509580
    17  N   -0.787626
    18  C    0.767313
    19  C   -0.595684
    20  O   -0.613892
    21  C    0.820641
    22  O   -0.639351
    23  N   -0.805929
    24  C   -0.275608
    25  N   -0.843150
    26  C    0.744563
    27  C   -0.588685
    28  O   -0.591791
    29  H    0.187229
    30  H    0.198433
    31  H    0.162284
    32  H    0.391586
    33  H    0.198930
    34  H    0.144210
    35  H    0.212482
    36  H    0.161272
    37  H    0.182088
    38  H    0.164535
    39  H    0.178301
    40  H    0.217384
    41  H    0.174877
    42  H    0.182257
    43  H    0.169244
    44  H    0.176656
    45  H    0.159879
    46  H    0.150848
    47  H    0.199625
    48  H    0.172989
    49  H    0.185131
    50  H    0.183409
    51  H    0.148362
    52  H    0.226571
    53  H    0.389774
    54  H    0.211115
    55  H    0.209493
    56  H    0.176219
    57  H    0.395234
    58  H    0.164866
    59  H    0.199970
    60  H    0.184869
    61  H    0.382688
    62  H    0.218636
    63  H    0.177220
    64  H    0.201422
 Sum of Mulliken atomic charges =   0.00000

 Dipole moment (field-independent basis, Debye):
    X=             -2.9643    Y=             -4.4923    Z=              6.3563  Tot=              8.3289
 Quadrupole moment (field-independent basis, Debye-Ang):
   XX=           -192.7376   YY=           -156.1060   ZZ=           -173.4208
   XY=             14.4322   XZ=            -17.2014   YZ=              9.6494

 Normal termination of Gaussian 09 at Thu Dec  5 17:12:47 2019.
