 Gaussian 09, Revision A.02,
 Gaussian 09:  EM64L-G09RevA.02 11-Jun-2009

 ---------------------------------
 #SP HF/6-31G* Geom=(ModRedundant)
 ---------------------------------

 ------------
 paramfit run
 ------------
 Symbolic Z-matrix:
 Charge =  0 Multiplicity = 1

                         Standard orientation:
 ---------------------------------------------------------------------
 Center     Atomic      Atomic             Coordinates (Angstroms)
 Number     Number       Type             X           Y           Z
 ---------------------------------------------------------------------
      1          6    20001001        6.338227    3.030678    0.766969
      2          7    20001014        5.745193    1.841755    0.190760
      3          6    20001002        5.380114    0.813480    0.991683
      4          8    20001024        5.314430    0.917016    2.185296
      5          6    90000001        4.915345   -0.472333    0.284534
      6          6    90000002        4.988725   -1.650426    1.261547
      7          6    90000002        3.478237   -0.285601   -0.273547
      8          6    90000002        2.331253    0.024318    0.705235
      9          6    90000002        1.050271    0.658781    0.128019
     10          6    20001004        0.406525   -0.149706   -0.973897
     11          6    20001004       -0.616054   -0.983000   -0.870410
     12          6    90000002       -1.392606   -1.333094    0.376247
     13          6    90000002       -2.759690   -0.634465    0.488320
     14          6    90000002       -3.706391   -0.997010   -0.663736
     15          6    90000002       -5.174678   -0.504973   -0.582016
     16          6    90000002       -5.884321   -0.943444   -1.873371
     17          7    20001014       -5.813773   -1.140169    0.562368
     18          6    20001002       -7.068290   -0.785281    0.966469
     19          6    20001001       -7.441318   -1.238127    2.359518
     20          8    20001024       -7.823495   -0.161489    0.273871
     21          6    20001002       -5.168970    1.022609   -0.347105
     22          8    20001024       -5.041635    1.464511    0.763046
     23          7    20001014       -5.207846    1.819830   -1.436560
     24          6    20001001       -5.256505    3.259651   -1.285740
     25          7    20001014        5.744180   -0.733599   -0.901300
     26          6    20001002        7.092894   -0.929507   -0.853728
     27          6    20001001        7.700082   -1.528503   -2.105385
     28          8    20001024        7.755030   -0.639010    0.101954
     29          1    20001035        7.308639    2.825859    1.204348
     30          1    20001035        5.691138    3.424915    1.536759
     31          1    20001035        6.448718    3.774261   -0.012280
     32          1    20001029        6.000245    1.610493   -0.740772
     33          1    20001034        4.400942   -1.461341    2.146810
     34          1    20001034        4.617739   -2.547270    0.774437
     35          1    20001034        6.009115   -1.816470    1.574851
     36          1    20001034        3.232171   -1.222509   -0.768395
     37          1    20001034        3.506731    0.470816   -1.051558
     38          1    20001034        2.050355   -0.921688    1.158874
     39          1    20001034        2.692876    0.650546    1.514212
     40          1    20001034        1.262625    1.653838   -0.240941
     41          1    20001034        0.357198    0.786861    0.952081
     42          1    20001033        0.839493   -0.017977   -1.952315
     43          1    20001033       -0.946091   -1.472938   -1.773072
     44          1    20001034       -0.814509   -1.090710    1.259718
     45          1    20001034       -1.542796   -2.411764    0.398821
     46          1    20001034       -3.193525   -0.908818    1.445865
     47          1    20001034       -2.611774    0.436816    0.524467
     48          1    20001034       -3.748005   -2.078913   -0.769990
     49          1    20001034       -3.291784   -0.610250   -1.587244
     50          1    20001034       -5.926042   -2.026190   -1.895815
     51          1    20001034       -5.335597   -0.621199   -2.752257
     52          1    20001034       -6.894919   -0.566375   -1.920815
     53          1    20001029       -5.199969   -1.405957    1.298107
     54          1    20001034       -8.516798   -1.253470    2.449900
     55          1    20001034       -7.041905   -0.524422    3.073815
     56          1    20001034       -7.038346   -2.217920    2.591897
     57          1    20001029       -5.549142    1.440463   -2.287974
     58          1    20001035       -5.159951    3.712918   -2.263568
     59          1    20001035       -4.438269    3.589014   -0.662333
     60          1    20001035       -6.186535    3.585773   -0.831380
     61          1    20001029        5.266679   -1.129832   -1.680106
     62          1    20001034        8.752842   -1.287794   -2.132395
     63          1    20001034        7.219376   -1.168048   -3.007906
     64          1    20001034        7.593060   -2.607953   -2.071699
 ---------------------------------------------------------------------

 SCF Done:  E(RHF) =  -1295.62270924     A.U. after   14 cycles

 The electronic state is 1-A.
 Alpha  occ. eigenvalues --  -20.53556 -20.52219 -20.51857 -20.51592 -15.59524
 Alpha  occ. eigenvalues --  -15.58175 -15.57718 -15.57151 -11.35890 -11.34423
 Alpha  occ. eigenvalues --  -11.33939 -11.33587 -11.29041 -11.28813 -11.25284
 Alpha  occ. eigenvalues --  -11.24610 -11.24301 -11.23947 -11.23693 -11.22958
 Alpha  occ. eigenvalues --  -11.22917 -11.22826 -11.22745 -11.22696 -11.22640
 Alpha  occ. eigenvalues --  -11.22558 -11.22024 -11.20759  -1.40484  -1.39583
 Alpha  occ. eigenvalues --   -1.38398  -1.38311  -1.25323  -1.23755  -1.22886
 Alpha  occ. eigenvalues --   -1.21757  -1.11178  -1.09381  -1.07485  -1.04538
 Alpha  occ. eigenvalues --   -1.01391  -0.99431  -0.98895  -0.95373  -0.95240
 Alpha  occ. eigenvalues --   -0.94808  -0.92443  -0.87217  -0.85832  -0.83117
 Alpha  occ. eigenvalues --   -0.81622  -0.79717  -0.78914  -0.77118  -0.76877
 Alpha  occ. eigenvalues --   -0.72333  -0.71509  -0.71040  -0.69196  -0.68197
 Alpha  occ. eigenvalues --   -0.67052  -0.65431  -0.64698  -0.63982  -0.63877
 Alpha  occ. eigenvalues --   -0.62908  -0.62292  -0.62183  -0.61629  -0.61371
 Alpha  occ. eigenvalues --   -0.60727  -0.60161  -0.59460  -0.58962  -0.58775
 Alpha  occ. eigenvalues --   -0.57858  -0.57736  -0.56824  -0.56577  -0.56199
 Alpha  occ. eigenvalues --   -0.55281  -0.55073  -0.54859  -0.54264  -0.54075
 Alpha  occ. eigenvalues --   -0.53350  -0.53124  -0.52375  -0.52044  -0.51740
 Alpha  occ. eigenvalues --   -0.51423  -0.50748  -0.50009  -0.49332  -0.48740
 Alpha  occ. eigenvalues --   -0.48322  -0.47354  -0.46715  -0.45183  -0.42722
 Alpha  occ. eigenvalues --   -0.41942  -0.41741  -0.41242  -0.39114  -0.39074
 Alpha  occ. eigenvalues --   -0.38541  -0.37945  -0.35136
 Alpha virt. eigenvalues --    0.16828   0.18890   0.19441   0.20179   0.20772
 Alpha virt. eigenvalues --    0.21382   0.21776   0.22974   0.23575   0.24279
 Alpha virt. eigenvalues --    0.24743   0.25185   0.26057   0.26885   0.27348

 Mulliken atomic charges:
              1
     1  C   -0.278429
     2  N   -0.781848
     3  C    0.817530
     4  O   -0.624538
     5  C    0.101102
     6  C   -0.472690
     7  C   -0.331264
     8  C   -0.319077
     9  C   -0.352894
    10  C   -0.175584
    11  C   -0.173196
    12  C   -0.356545
    13  C   -0.311079
    14  C   -0.329418
    15  C    0.091207
    16  C   -0.509701
    17  N   -0.787497
    18  C    0.767120
    19  C   -0.595782
    20  O   -0.613831
    21  C    0.820238
    22  O   -0.639107
    23  N   -0.806331
    24  C   -0.275301
    25  N   -0.843547
    26  C    0.744888
    27  C   -0.588516
    28  O   -0.591584
    29  H    0.185196
    30  H    0.198179
    31  H    0.161489
    32  H    0.389988
    33  H    0.200396
    34  H    0.143455
    35  H    0.211660
    36  H    0.164109
    37  H    0.171648
    38  H    0.165665
    39  H    0.201169
    40  H    0.173185
    41  H    0.182158
    42  H    0.170279
    43  H    0.172770
    44  H    0.180303
    45  H    0.163538
    46  H    0.153692
    47  H    0.197700
    48  H    0.174330
    49  H    0.183899
    50  H    0.184246
    51  H    0.147981
    52  H    0.227164
    53  H    0.390016
    54  H    0.211608
    55  H    0.209688
    56  H    0.176886
    57  H    0.395655
    58  H    0.164717
    59  H    0.198089
    60  H    0.185974
    61  H    0.382286
    62  H    0.218617
    63  H    0.176933
    64  H    0.201005
 Sum of Mulliken atomic charges =   0.00000

 Dipole moment (field-independent basis, Debye):
    X=              0.5200    Y=             -2.5508    Z=             -7.0354  Tot=              7.5015
 Quadrupole moment (field-independent basis, Debye-Ang):
   XX=           -221.0563   YY=           -160.3829   ZZ=           -165.4472
   XY=              6.4266   XZ=            -30.5662   YZ=             -7.9579

 Normal termination of Gaussian 09 at Thu Dec  5 17:53:25 2019.
