 Gaussian 09, Revision A.02,
 Gaussian 09:  EM64L-G09RevA.02 11-Jun-2009

 ---------------------------------
 #SP HF/6-31G* Geom=(ModRedundant)
 ---------------------------------

 ------------
 paramfit run
 ------------
 Symbolic Z-matrix:
 Charge =  0 Multiplicity = 1

                         Standard orientation:
 ---------------------------------------------------------------------
 Center     Atomic      Atomic             Coordinates (Angstroms)
 Number     Number       Type             X           Y           Z
 ---------------------------------------------------------------------
      1          6    20001001       -3.397052    2.671070    0.870509
      2          7    20001014       -3.892910    1.316011    0.747281
      3          6    20001002       -4.102899    0.782970   -0.479047
      4          8    20001024       -3.690143    1.292945   -1.483689
      5          6    90000001       -4.786449   -0.595678   -0.517422
      6          6    90000002       -5.363828   -0.843393   -1.914960
      7          6    90000002       -3.776152   -1.704364   -0.115280
      8          6    90000002       -2.508997   -1.904527   -0.966096
      9          6    90000002       -1.425869   -0.809226   -0.904597
     10          6    20001004       -0.912545   -0.529807    0.488494
     11          6    20001004        0.192085   -0.994930    1.049037
     12          6    90000002        1.213326   -1.921902    0.434592
     13          6    90000002        2.498859   -1.221931   -0.041865
     14          6    90000002        3.253538   -0.528030    1.100008
     15          6    90000002        4.653813    0.063605    0.793669
     16          6    90000002        5.159225    0.748419    2.073919
     17          7    20001014        5.551428   -1.027797    0.440598
     18          6    20001002        6.815092   -0.791852   -0.018248
     19          6    20001001        7.478730   -1.970401   -0.693093
     20          8    20001024        7.364179    0.267993    0.101643
     21          6    20001002        4.533598    1.005355   -0.425914
     22          8    20001024        4.564573    0.559362   -1.541288
     23          7    20001014        4.292368    2.311605   -0.181989
     24          6    20001001        4.219134    3.256966   -1.277038
     25          7    20001014       -5.846032   -0.671121    0.498956
     26          6    20001002       -6.926636    0.160187    0.528828
     27          6    20001001       -8.064586   -0.296334    1.418085
     28          8    20001024       -6.971830    1.184227   -0.092010
     29          1    20001035       -4.115523    3.397817    0.509141
     30          1    20001035       -2.484601    2.778865    0.302585
     31          1    20001035       -3.185392    2.868144    1.913925
     32          1    20001029       -4.459000    0.968617    1.485620
     33          1    20001034       -4.598855   -0.769306   -2.672759
     34          1    20001034       -5.805589   -1.834683   -1.952748
     35          1    20001034       -6.123733   -0.110429   -2.143510
     36          1    20001034       -4.335341   -2.636742   -0.149918
     37          1    20001034       -3.497161   -1.555573    0.923135
     38          1    20001034       -2.054803   -2.831209   -0.627588
     39          1    20001034       -2.780663   -2.064084   -2.004418
     40          1    20001034       -1.802737    0.110039   -1.333884
     41          1    20001034       -0.611977   -1.127546   -1.546536
     42          1    20001033       -1.526708    0.129882    1.079873
     43          1    20001033        0.401875   -0.681252    2.059658
     44          1    20001034        0.782908   -2.450267   -0.407451
     45          1    20001034        1.475287   -2.683222    1.168324
     46          1    20001034        3.124762   -1.970186   -0.520125
     47          1    20001034        2.250513   -0.504545   -0.812913
     48          1    20001034        3.386312   -1.227550    1.922551
     49          1    20001034        2.641038    0.282286    1.477605
     50          1    20001034        5.307362   -0.007449    2.836347
     51          1    20001034        4.430262    1.455955    2.455215
     52          1    20001034        6.100287    1.252260    1.911790
     53          1    20001029        5.111621   -1.830626    0.052336
     54          1    20001034        8.548577   -1.827725   -0.681532
     55          1    20001034        7.143961   -2.011531   -1.725256
     56          1    20001034        7.227464   -2.910161   -0.213408
     57          1    20001029        4.511073    2.672987    0.716276
     58          1    20001035        3.901037    4.214522   -0.886111
     59          1    20001035        3.497809    2.916473   -2.005310
     60          1    20001035        5.177483    3.374250   -1.772584
     61          1    20001029       -5.957719   -1.557960    0.937808
     62          1    20001034       -8.667159    0.560644    1.681650
     63          1    20001034       -7.710972   -0.785532    2.318748
     64          1    20001034       -8.684219   -0.999443    0.870824
 ---------------------------------------------------------------------

 SCF Done:  E(RHF) =  -1295.62004788     A.U. after   14 cycles

 The electronic state is 1-A.
 Alpha  occ. eigenvalues --  -20.53720 -20.51982 -20.51954 -20.51461 -15.59682
 Alpha  occ. eigenvalues --  -15.57768 -15.57706 -15.57415 -11.36035 -11.34163
 Alpha  occ. eigenvalues --  -11.34057 -11.33549 -11.29112 -11.28438 -11.25053
 Alpha  occ. eigenvalues --  -11.24844 -11.24410 -11.24052 -11.23239 -11.22664
 Alpha  occ. eigenvalues --  -11.22440 -11.22317 -11.22159 -11.21857 -11.21696
 Alpha  occ. eigenvalues --  -11.21602 -11.21027 -11.20928  -1.40668  -1.39256
 Alpha  occ. eigenvalues --   -1.38952  -1.37976  -1.25526  -1.23438  -1.22480
 Alpha  occ. eigenvalues --   -1.22278  -1.10567  -1.09197  -1.07041  -1.04097
 Alpha  occ. eigenvalues --   -1.01149  -0.99290  -0.98655  -0.95675  -0.95018
 Alpha  occ. eigenvalues --   -0.94464  -0.92044  -0.87230  -0.85592  -0.82758
 Alpha  occ. eigenvalues --   -0.81273  -0.79379  -0.78697  -0.77363  -0.76752
 Alpha  occ. eigenvalues --   -0.71711  -0.71326  -0.70991  -0.68944  -0.67893
 Alpha  occ. eigenvalues --   -0.66695  -0.65924  -0.64528  -0.63891  -0.63646
 Alpha  occ. eigenvalues --   -0.62653  -0.62296  -0.61574  -0.61296  -0.61245
 Alpha  occ. eigenvalues --   -0.60853  -0.59900  -0.59226  -0.58642  -0.58442
 Alpha  occ. eigenvalues --   -0.58336  -0.57685  -0.56447  -0.56323  -0.56120
 Alpha  occ. eigenvalues --   -0.55441  -0.54763  -0.54671  -0.54635  -0.53770
 Alpha  occ. eigenvalues --   -0.53223  -0.52898  -0.52397  -0.52096  -0.51499
 Alpha  occ. eigenvalues --   -0.51095  -0.50260  -0.49686  -0.49120  -0.48527
 Alpha  occ. eigenvalues --   -0.48209  -0.46559  -0.46225  -0.44276  -0.42964
 Alpha  occ. eigenvalues --   -0.41983  -0.41383  -0.40966  -0.39401  -0.38719
 Alpha  occ. eigenvalues --   -0.38391  -0.38153  -0.34158
 Alpha virt. eigenvalues --    0.17568   0.18725   0.19619   0.19783   0.20176
 Alpha virt. eigenvalues --    0.21709   0.22092   0.23333   0.23363   0.24081
 Alpha virt. eigenvalues --    0.25582   0.25749   0.26668   0.27262   0.27766

 Mulliken atomic charges:
              1
     1  C   -0.281528
     2  N   -0.783127
     3  C    0.821246
     4  O   -0.627876
     5  C    0.103609
     6  C   -0.472391
     7  C   -0.336004
     8  C   -0.305391
     9  C   -0.397747
    10  C   -0.182035
    11  C   -0.179996
    12  C   -0.352074
    13  C   -0.310268
    14  C   -0.328823
    15  C    0.090966
    16  C   -0.509533
    17  N   -0.787650
    18  C    0.767340
    19  C   -0.595647
    20  O   -0.614004
    21  C    0.820785
    22  O   -0.639507
    23  N   -0.805814
    24  C   -0.275591
    25  N   -0.843240
    26  C    0.744621
    27  C   -0.588729
    28  O   -0.591889
    29  H    0.188716
    30  H    0.198599
    31  H    0.162894
    32  H    0.392689
    33  H    0.198539
    34  H    0.144745
    35  H    0.212379
    36  H    0.161141
    37  H    0.181787
    38  H    0.164969
    39  H    0.172766
    40  H    0.234682
    41  H    0.173354
    42  H    0.193453
    43  H    0.167576
    44  H    0.175978
    45  H    0.158704
    46  H    0.150005
    47  H    0.199708
    48  H    0.172668
    49  H    0.185299
    50  H    0.183227
    51  H    0.148368
    52  H    0.226335
    53  H    0.389799
    54  H    0.210923
    55  H    0.209404
    56  H    0.176146
    57  H    0.395120
    58  H    0.164904
    59  H    0.200265
    60  H    0.184502
    61  H    0.382982
    62  H    0.218721
    63  H    0.177378
    64  H    0.201572
 Sum of Mulliken atomic charges =   0.00000

 Dipole moment (field-independent basis, Debye):
    X=             -3.6698    Y=             -4.4745    Z=              6.0822  Tot=              8.3953
 Quadrupole moment (field-independent basis, Debye-Ang):
   XX=           -186.2788   YY=           -157.2229   ZZ=           -173.3305
   XY=             15.3474   XZ=            -14.3560   YZ=              8.6412

 Normal termination of Gaussian 09 at Thu Dec  5 17:07:24 2019.
