 Gaussian 09, Revision A.02,
 Gaussian 09:  EM64L-G09RevA.02 11-Jun-2009

 ---------------------------------
 #SP HF/6-31G* Geom=(ModRedundant)
 ---------------------------------

 ------------
 paramfit run
 ------------
 Symbolic Z-matrix:
 Charge =  0 Multiplicity = 1

                         Standard orientation:
 ---------------------------------------------------------------------
 Center     Atomic      Atomic             Coordinates (Angstroms)
 Number     Number       Type             X           Y           Z
 ---------------------------------------------------------------------
      1          6    20001001        1.284311   -1.652420    1.416086
      2          7    20001014        2.495502   -0.888840    1.198813
      3          6    20001002        2.760679   -0.377822   -0.026198
      4          8    20001024        1.937511   -0.331081   -0.897952
      5          6    90000001        4.143095    0.273535   -0.210714
      6          6    90000002        4.468320    0.372607   -1.704788
      7          6    90000002        4.171665    1.668651    0.470781
      8          6    90000002        3.192417    2.754862   -0.009695
      9          6    90000002        1.757568    2.723863    0.553230
     10          6    20001004        0.713916    3.268824   -0.393388
     11          6    20001004       -0.087331    2.582359   -1.191841
     12          6    90000002       -0.156012    1.082916   -1.355260
     13          6    90000002       -1.342103    0.420309   -0.631585
     14          6    90000002       -2.700720    0.920852   -1.140045
     15          6    90000002       -3.978410    0.209653   -0.623954
     16          6    90000002       -5.190942    0.934983   -1.229855
     17          7    20001014       -3.958997   -1.171672   -1.085575
     18          6    20001002       -4.887917   -2.078016   -0.662842
     19          6    20001001       -4.526954   -3.524474   -0.912380
     20          8    20001024       -5.915565   -1.758341   -0.132851
     21          6    20001002       -3.947930    0.204160    0.921285
     22          8    20001024       -3.332924   -0.642289    1.512235
     23          7    20001014       -4.545445    1.233809    1.559078
     24          6    20001001       -4.597736    1.264053    3.006335
     25          7    20001014        5.174370   -0.504700    0.490894
     26          6    20001002        5.456778   -1.809786    0.214003
     27          6    20001001        6.765599   -2.318750    0.781508
     28          8    20001024        4.720212   -2.509912   -0.421162
     29          1    20001035        1.289103   -2.582994    0.860246
     30          1    20001035        0.426957   -1.072561    1.107166
     31          1    20001035        1.197608   -1.869639    2.473276
     32          1    20001029        3.279198   -1.104644    1.769369
     33          1    20001034        3.706736    0.923835   -2.234947
     34          1    20001034        5.423257    0.873207   -1.834142
     35          1    20001034        4.525168   -0.612822   -2.143678
     36          1    20001034        5.177313    2.051641    0.312001
     37          1    20001034        4.064530    1.530630    1.542113
     38          1    20001034        3.630969    3.708751    0.268490
     39          1    20001034        3.138664    2.752809   -1.093429
     40          1    20001034        1.712198    3.273513    1.484460
     41          1    20001034        1.534077    1.692675    0.803304
     42          1    20001033        0.620984    4.342766   -0.404655
     43          1    20001033       -0.778819    3.145372   -1.798982
     44          1    20001034        0.758063    0.623659   -0.998866
     45          1    20001034       -0.216162    0.853132   -2.418357
     46          1    20001034       -1.251805   -0.654200   -0.764439
     47          1    20001034       -1.255592    0.597062    0.432419
     48          1    20001034       -2.726681    0.854538   -2.225614
     49          1    20001034       -2.798051    1.970999   -0.890911
     50          1    20001034       -5.177072    0.795728   -2.304562
     51          1    20001034       -5.145675    2.002353   -1.039972
     52          1    20001034       -6.121859    0.540447   -0.851079
     53          1    20001029       -3.055160   -1.550659   -1.253385
     54          1    20001034       -5.427076   -4.120071   -0.902144
     55          1    20001034       -3.876834   -3.861999   -0.110790
     56          1    20001034       -4.007331   -3.658826   -1.854890
     57          1    20001029       -5.228680    1.761096    1.068703
     58          1    20001035       -5.003837    2.217553    3.317527
     59          1    20001035       -3.601531    1.156811    3.409696
     60          1    20001035       -5.216305    0.465802    3.403730
     61          1    20001029        5.906220    0.028006    0.905824
     62          1    20001034        6.718801   -3.395449    0.855683
     63          1    20001034        6.983602   -1.894358    1.755117
     64          1    20001034        7.573366   -2.053516    0.106997
 ---------------------------------------------------------------------

 SCF Done:  E(RHF) =  -1295.58892041     A.U. after   14 cycles

 The electronic state is 1-A.
 Alpha  occ. eigenvalues --  -20.54011 -20.52982 -20.51280 -20.50901 -15.60023
 Alpha  occ. eigenvalues --  -15.58101 -15.57296 -15.56571 -11.36317 -11.34876
 Alpha  occ. eigenvalues --  -11.33473 -11.32950 -11.29617 -11.27454 -11.24888
 Alpha  occ. eigenvalues --  -11.24641 -11.24600 -11.24468 -11.22549 -11.21833
 Alpha  occ. eigenvalues --  -11.21804 -11.21546 -11.21308 -11.20892 -11.20673
 Alpha  occ. eigenvalues --  -11.20415 -11.20228 -11.17237  -1.41178  -1.40364
 Alpha  occ. eigenvalues --   -1.38626  -1.37374  -1.25958  -1.22753  -1.22602
 Alpha  occ. eigenvalues --   -1.22003  -1.10107  -1.08239  -1.06460  -1.03289
 Alpha  occ. eigenvalues --   -1.00794  -0.99153  -0.98052  -0.95869  -0.94629
 Alpha  occ. eigenvalues --   -0.94032  -0.90807  -0.87124  -0.84526  -0.82883
 Alpha  occ. eigenvalues --   -0.80329  -0.78964  -0.78610  -0.77948  -0.76125
 Alpha  occ. eigenvalues --   -0.72411  -0.70959  -0.70517  -0.69242  -0.67762
 Alpha  occ. eigenvalues --   -0.66792  -0.66412  -0.63876  -0.63643  -0.63241
 Alpha  occ. eigenvalues --   -0.62931  -0.62638  -0.61111  -0.60850  -0.60662
 Alpha  occ. eigenvalues --   -0.60292  -0.59869  -0.59401  -0.58228  -0.58162
 Alpha  occ. eigenvalues --   -0.57772  -0.57401  -0.56450  -0.55694  -0.55184
 Alpha  occ. eigenvalues --   -0.54818  -0.54480  -0.54321  -0.54023  -0.53695
 Alpha  occ. eigenvalues --   -0.52806  -0.52558  -0.51922  -0.51678  -0.50563
 Alpha  occ. eigenvalues --   -0.50487  -0.50298  -0.48882  -0.48460  -0.47823
 Alpha  occ. eigenvalues --   -0.46929  -0.46404  -0.44435  -0.43974  -0.43053
 Alpha  occ. eigenvalues --   -0.41339  -0.40680  -0.40285  -0.39864  -0.38128
 Alpha  occ. eigenvalues --   -0.37715  -0.37504  -0.32842
 Alpha virt. eigenvalues --    0.18421   0.19150   0.19242   0.19807   0.20444
 Alpha virt. eigenvalues --    0.22404   0.22935   0.23787   0.23929   0.24437
 Alpha virt. eigenvalues --    0.25663   0.25921   0.26736   0.27189   0.27979

 Mulliken atomic charges:
              1
     1  C   -0.293167
     2  N   -0.777134
     3  C    0.825149
     4  O   -0.644091
     5  C    0.102440
     6  C   -0.473644
     7  C   -0.334472
     8  C   -0.315120
     9  C   -0.360840
    10  C   -0.192482
    11  C   -0.155924
    12  C   -0.383903
    13  C   -0.316293
    14  C   -0.322435
    15  C    0.090619
    16  C   -0.509311
    17  N   -0.787811
    18  C    0.766703
    19  C   -0.595001
    20  O   -0.616856
    21  C    0.822289
    22  O   -0.644279
    23  N   -0.805730
    24  C   -0.273405
    25  N   -0.842968
    26  C    0.744871
    27  C   -0.589087
    28  O   -0.592211
    29  H    0.184514
    30  H    0.214721
    31  H    0.172290
    32  H    0.394896
    33  H    0.199957
    34  H    0.147650
    35  H    0.212670
    36  H    0.163273
    37  H    0.178998
    38  H    0.162903
    39  H    0.188213
    40  H    0.166322
    41  H    0.185257
    42  H    0.163400
    43  H    0.160045
    44  H    0.294334
    45  H    0.143050
    46  H    0.150194
    47  H    0.177925
    48  H    0.173522
    49  H    0.178714
    50  H    0.183639
    51  H    0.146916
    52  H    0.222634
    53  H    0.392618
    54  H    0.208423
    55  H    0.206783
    56  H    0.178699
    57  H    0.395310
    58  H    0.163109
    59  H    0.195452
    60  H    0.183217
    61  H    0.384202
    62  H    0.219876
    63  H    0.178394
    64  H    0.201974
 Sum of Mulliken atomic charges =   0.00000

 Dipole moment (field-independent basis, Debye):
    X=              6.8048    Y=              3.0314    Z=              2.3633  Tot=              7.8154
 Quadrupole moment (field-independent basis, Debye-Ang):
   XX=           -148.5152   YY=           -168.9102   ZZ=           -168.6941
   XY=             -9.0410   XZ=             17.7759   YZ=              1.5742

 Normal termination of Gaussian 09 at Thu Dec  5 17:21:37 2019.
