 Gaussian 09, Revision A.02,
 Gaussian 09:  EM64L-G09RevA.02 11-Jun-2009

 ---------------------------------
 #SP HF/6-31G* Geom=(ModRedundant)
 ---------------------------------

 ------------
 paramfit run
 ------------
 Symbolic Z-matrix:
 Charge =  0 Multiplicity = 1

                         Standard orientation:
 ---------------------------------------------------------------------
 Center     Atomic      Atomic             Coordinates (Angstroms)
 Number     Number       Type             X           Y           Z
 ---------------------------------------------------------------------
      1          6    20001001        1.569113   -1.757213    1.585448
      2          7    20001014        2.716227   -0.930388    1.272823
      3          6    20001002        2.879402   -0.448780    0.018416
      4          8    20001024        2.006944   -0.483136   -0.804617
      5          6    90000001        4.205968    0.277593   -0.267922
      6          6    90000002        4.439392    0.342196   -1.780927
      7          6    90000002        4.186183    1.695536    0.365044
      8          6    90000002        3.115658    2.702779   -0.092204
      9          6    90000002        1.719650    2.605706    0.554614
     10          6    20001004        0.623621    3.268804   -0.246198
     11          6    20001004       -0.234961    2.690858   -1.070560
     12          6    90000002       -0.330981    1.224142   -1.415924
     13          6    90000002       -1.475599    0.479464   -0.705382
     14          6    90000002       -2.858296    1.044336   -1.057495
     15          6    90000002       -4.108196    0.277875   -0.552585
     16          6    90000002       -5.348826    1.077548   -0.982481
     17          7    20001014       -4.134114   -1.034402   -1.184080
     18          6    20001002       -5.044191   -1.983806   -0.818774
     19          6    20001001       -4.716407   -3.388479   -1.270724
     20          8    20001024       -6.032004   -1.730142   -0.187093
     21          6    20001002       -3.978638    0.077800    0.974475
     22          8    20001024       -3.336595   -0.838253    1.413287
     23          7    20001014       -4.522267    1.020854    1.773911
     24          6    20001001       -4.481192    0.868828    3.213842
     25          7    20001014        5.321681   -0.411334    0.396904
     26          6    20001002        5.668622   -1.706165    0.146468
     27          6    20001001        7.036564   -2.114599    0.652468
     28          8    20001024        4.942302   -2.471808   -0.421325
     29          1    20001035        1.600348   -2.705225    1.060808
     30          1    20001035        0.661252   -1.241553    1.308670
     31          1    20001035        1.556012   -1.941041    2.652401
     32          1    20001029        3.542838   -1.077904    1.803142
     33          1    20001034        3.616231    0.827096   -2.283133
     34          1    20001034        5.352490    0.894423   -1.982259
     35          1    20001034        4.532524   -0.653187   -2.190152
     36          1    20001034        5.155466    2.132437    0.135199
     37          1    20001034        4.148596    1.589991    1.444733
     38          1    20001034        3.509046    3.690751    0.128647
     39          1    20001034        3.000940    2.658459   -1.170280
     40          1    20001034        1.740389    3.033892    1.548390
     41          1    20001034        1.501002    1.551953    0.687402
     42          1    20001033        0.542335    4.335909   -0.116609
     43          1    20001033       -0.957576    3.328012   -1.555971
     44          1    20001034        0.598825    0.720780   -1.180227
     45          1    20001034       -0.461858    1.130210   -2.493256
     46          1    20001034       -1.406199   -0.570052   -0.977545
     47          1    20001034       -1.318960    0.520589    0.364480
     48          1    20001034       -2.954646    1.115293   -2.138798
     49          1    20001034       -2.927524    2.055068   -0.672817
     50          1    20001034       -5.405559    1.074652   -2.064772
     51          1    20001034       -5.279369    2.112374   -0.663584
     52          1    20001034       -6.257917    0.641417   -0.596372
     53          1    20001029       -3.247267   -1.392109   -1.456592
     54          1    20001034       -5.620708   -3.977772   -1.276677
     55          1    20001034       -4.020035   -3.826287   -0.561843
     56          1    20001034       -4.259923   -3.404754   -2.254461
     57          1    20001029       -5.229556    1.607840    1.399077
     58          1    20001035       -4.855644    1.776848    3.667942
     59          1    20001035       -3.462425    0.708507    3.534837
     60          1    20001035       -5.081978    0.028863    3.547414
     61          1    20001029        6.041264    0.179085    0.750674
     62          1    20001034        7.061109   -3.188790    0.764198
     63          1    20001034        7.282450   -1.643054    1.597315
     64          1    20001034        7.786829   -1.825658   -0.076516
 ---------------------------------------------------------------------

 SCF Done:  E(RHF) =  -1295.61520307     A.U. after   14 cycles

 The electronic state is 1-A.
 Alpha  occ. eigenvalues --  -20.53816 -20.52434 -20.51368 -20.51002 -15.59812
 Alpha  occ. eigenvalues --  -15.57656 -15.57403 -15.56698 -11.36130 -11.34364
 Alpha  occ. eigenvalues --  -11.33559 -11.33066 -11.29347 -11.27672 -11.24718
 Alpha  occ. eigenvalues --  -11.24639 -11.24460 -11.24326 -11.22560 -11.22140
 Alpha  occ. eigenvalues --  -11.21863 -11.21551 -11.21169 -11.21118 -11.21059
 Alpha  occ. eigenvalues --  -11.20960 -11.20644 -11.19182  -1.40795  -1.39440
 Alpha  occ. eigenvalues --   -1.38723  -1.37467  -1.25672  -1.22739  -1.22273
 Alpha  occ. eigenvalues --   -1.22109  -1.10098  -1.08498  -1.06595  -1.03498
 Alpha  occ. eigenvalues --   -1.00866  -0.99128  -0.98116  -0.95512  -0.94703
 Alpha  occ. eigenvalues --   -0.94122  -0.91050  -0.87034  -0.84745  -0.82542
 Alpha  occ. eigenvalues --   -0.80420  -0.78878  -0.78683  -0.77480  -0.76241
 Alpha  occ. eigenvalues --   -0.71722  -0.71057  -0.70396  -0.69227  -0.67381
 Alpha  occ. eigenvalues --   -0.66447  -0.66046  -0.64021  -0.63497  -0.63203
 Alpha  occ. eigenvalues --   -0.62859  -0.62462  -0.60997  -0.60930  -0.60646
 Alpha  occ. eigenvalues --   -0.60411  -0.59761  -0.59126  -0.58385  -0.58086
 Alpha  occ. eigenvalues --   -0.57909  -0.57334  -0.56239  -0.55736  -0.55326
 Alpha  occ. eigenvalues --   -0.54672  -0.54496  -0.54419  -0.54010  -0.53366
 Alpha  occ. eigenvalues --   -0.52744  -0.52542  -0.51963  -0.51647  -0.51085
 Alpha  occ. eigenvalues --   -0.50839  -0.50288  -0.49095  -0.48571  -0.47936
 Alpha  occ. eigenvalues --   -0.46888  -0.46801  -0.44681  -0.43599  -0.42995
 Alpha  occ. eigenvalues --   -0.42138  -0.40805  -0.40373  -0.39607  -0.38375
 Alpha  occ. eigenvalues --   -0.38218  -0.37667  -0.33387
 Alpha virt. eigenvalues --    0.18629   0.18819   0.19716   0.19949   0.20336
 Alpha virt. eigenvalues --    0.22290   0.22783   0.23534   0.23975   0.24389
 Alpha virt. eigenvalues --    0.25580   0.25744   0.26621   0.27082   0.27964

 Mulliken atomic charges:
              1
     1  C   -0.287548
     2  N   -0.778744
     3  C    0.824514
     4  O   -0.637165
     5  C    0.101662
     6  C   -0.472896
     7  C   -0.333797
     8  C   -0.314430
     9  C   -0.358972
    10  C   -0.185591
    11  C   -0.161297
    12  C   -0.401786
    13  C   -0.310657
    14  C   -0.326877
    15  C    0.091172
    16  C   -0.509266
    17  N   -0.787854
    18  C    0.766609
    19  C   -0.595058
    20  O   -0.616641
    21  C    0.821359
    22  O   -0.642058
    23  N   -0.805894
    24  C   -0.273600
    25  N   -0.842878
    26  C    0.744915
    27  C   -0.588939
    28  O   -0.591899
    29  H    0.185462
    30  H    0.209410
    31  H    0.167807
    32  H    0.392626
    33  H    0.198614
    34  H    0.146200
    35  H    0.212515
    36  H    0.163086
    37  H    0.178402
    38  H    0.161476
    39  H    0.186313
    40  H    0.163115
    41  H    0.193466
    42  H    0.165746
    43  H    0.164921
    44  H    0.278025
    45  H    0.149425
    46  H    0.157445
    47  H    0.184346
    48  H    0.173328
    49  H    0.179420
    50  H    0.183724
    51  H    0.146962
    52  H    0.223583
    53  H    0.392707
    54  H    0.208546
    55  H    0.208380
    56  H    0.178468
    57  H    0.395252
    58  H    0.163188
    59  H    0.195764
    60  H    0.183727
    61  H    0.383279
    62  H    0.219482
    63  H    0.177955
    64  H    0.201448
 Sum of Mulliken atomic charges =   0.00000

 Dipole moment (field-independent basis, Debye):
    X=              6.3893    Y=              3.8113    Z=              2.1656  Tot=              7.7485
 Quadrupole moment (field-independent basis, Debye-Ang):
   XX=           -147.3271   YY=           -170.9382   ZZ=           -165.8340
   XY=             -7.1801   XZ=             16.2797   YZ=              2.3866

 Normal termination of Gaussian 09 at Thu Dec  5 17:14:55 2019.
