 Gaussian 09, Revision A.02,
 Gaussian 09:  EM64L-G09RevA.02 11-Jun-2009

 ---------------------------------
 #SP HF/6-31G* Geom=(ModRedundant)
 ---------------------------------

 ------------
 paramfit run
 ------------
 Symbolic Z-matrix:
 Charge =  0 Multiplicity = 1

                         Standard orientation:
 ---------------------------------------------------------------------
 Center     Atomic      Atomic             Coordinates (Angstroms)
 Number     Number       Type             X           Y           Z
 ---------------------------------------------------------------------
      1          6    20001001       -3.805421    2.901189    0.537580
      2          7    20001014       -4.152702    1.495425    0.559203
      3          6    20001002       -4.330700    0.826126   -0.603753
      4          8    20001024       -3.998967    1.276955   -1.665097
      5          6    90000001       -4.860006   -0.614749   -0.489289
      6          6    90000002       -5.438169   -1.057601   -1.837418
      7          6    90000002       -3.725670   -1.564804   -0.017822
      8          6    90000002       -2.463724   -1.710488   -0.887249
      9          6    90000002       -1.364869   -0.639561   -0.738013
     10          6    20001004       -0.790707   -0.537958    0.655648
     11          6    20001004        0.330070   -1.077184    1.107146
     12          6    90000002        1.312883   -1.929267    0.340472
     13          6    90000002        2.586543   -1.185918   -0.100874
     14          6    90000002        3.396803   -0.643919    1.084297
     15          6    90000002        4.790740   -0.029933    0.793423
     16          6    90000002        5.357581    0.487932    2.125323
     17          7    20001014        5.658737   -1.076439    0.270989
     18          6    20001002        6.905264   -0.795567   -0.208944
     19          6    20001001        7.525046   -1.887078   -1.051130
     20          8    20001024        7.472538    0.237127    0.016637
     21          6    20001002        4.632332    1.055848   -0.295022
     22          8    20001024        4.611297    0.750491   -1.457022
     23          7    20001014        4.418367    2.323912    0.117547
     24          6    20001001        4.312100    3.397564   -0.848984
     25          7    20001014       -5.881794   -0.703499    0.564040
     26          6    20001002       -7.045912    0.006661    0.550919
     27          6    20001001       -8.106750   -0.479914    1.516313
     28          8    20001024       -7.216853    0.954665   -0.161969
     29          1    20001035       -4.607052    3.508432    0.133112
     30          1    20001035       -2.923276    3.049926   -0.067746
     31          1    20001035       -3.593129    3.220409    1.550193
     32          1    20001029       -4.660601    1.163168    1.345288
     33          1    20001034       -4.703170   -0.976452   -2.623626
     34          1    20001034       -5.769564   -2.089319   -1.766898
     35          1    20001034       -6.278661   -0.435693   -2.108954
     36          1    20001034       -4.180133   -2.550454    0.054141
     37          1    20001034       -3.441298   -1.286661    0.992153
     38          1    20001034       -2.021966   -2.668642   -0.629552
     39          1    20001034       -2.740341   -1.778329   -1.934271
     40          1    20001034       -1.747247    0.328501   -1.034672
     41          1    20001034       -0.582460   -0.882653   -1.448347
     42          1    20001033       -1.371244    0.048569    1.349246
     43          1    20001033        0.585589   -0.892090    2.138752
     44          1    20001034        0.841145   -2.346468   -0.540931
     45          1    20001034        1.595117   -2.777223    0.963296
     46          1    20001034        3.182348   -1.874364   -0.693689
     47          1    20001034        2.315795   -0.377068   -0.766672
     48          1    20001034        3.554453   -1.440488    1.808284
     49          1    20001034        2.811024    0.118417    1.584355
     50          1    20001034        5.527359   -0.357266    2.782130
     51          1    20001034        4.654270    1.148722    2.621399
     52          1    20001034        6.297573    1.000589    1.986261
     53          1    20001029        5.192855   -1.821857   -0.193787
     54          1    20001034        8.596213   -1.755229   -1.067830
     55          1    20001034        7.147307   -1.798086   -2.065289
     56          1    20001034        7.281702   -2.876812   -0.680197
     57          1    20001029        4.678756    2.570124    1.043228
     58          1    20001035        4.022909    4.302082   -0.330199
     59          1    20001035        3.556877    3.155033   -1.582088
     60          1    20001035        5.250541    3.567578   -1.366842
     61          1    20001029       -5.885865   -1.550210    1.088075
     62          1    20001034       -8.793370    0.329429    1.717536
     63          1    20001034       -7.681528   -0.838516    2.446980
     64          1    20001034       -8.657917   -1.295078    1.058576
 ---------------------------------------------------------------------

 SCF Done:  E(RHF) =  -1295.62201628     A.U. after   14 cycles

 The electronic state is 1-A.
 Alpha  occ. eigenvalues --  -20.53650 -20.52031 -20.51837 -20.51566 -15.59610
 Alpha  occ. eigenvalues --  -15.57874 -15.57524 -15.57505 -11.35970 -11.34239
 Alpha  occ. eigenvalues --  -11.33853 -11.33654 -11.29030 -11.28549 -11.24951
 Alpha  occ. eigenvalues --  -11.24897 -11.24361 -11.24022 -11.23381 -11.22688
 Alpha  occ. eigenvalues --  -11.22544 -11.22501 -11.22336 -11.22236 -11.22040
 Alpha  occ. eigenvalues --  -11.21791 -11.21590 -11.20852  -1.40586  -1.39346
 Alpha  occ. eigenvalues --   -1.38699  -1.38068  -1.25433  -1.23531  -1.22586
 Alpha  occ. eigenvalues --   -1.22072  -1.10756  -1.09256  -1.07188  -1.04218
 Alpha  occ. eigenvalues --   -1.01236  -0.99317  -0.98726  -0.95515  -0.95125
 Alpha  occ. eigenvalues --   -0.94564  -0.92174  -0.87258  -0.85692  -0.82826
 Alpha  occ. eigenvalues --   -0.81337  -0.79474  -0.78769  -0.77173  -0.76852
 Alpha  occ. eigenvalues --   -0.71916  -0.71298  -0.71087  -0.68956  -0.67970
 Alpha  occ. eigenvalues --   -0.66688  -0.65850  -0.64507  -0.63956  -0.63697
 Alpha  occ. eigenvalues --   -0.62589  -0.62327  -0.61773  -0.61404  -0.61138
 Alpha  occ. eigenvalues --   -0.60913  -0.59888  -0.59327  -0.58709  -0.58414
 Alpha  occ. eigenvalues --   -0.58242  -0.57813  -0.56595  -0.56383  -0.56202
 Alpha  occ. eigenvalues --   -0.55460  -0.54833  -0.54729  -0.54552  -0.53984
 Alpha  occ. eigenvalues --   -0.53074  -0.52810  -0.52481  -0.52148  -0.51559
 Alpha  occ. eigenvalues --   -0.51027  -0.50305  -0.49758  -0.49228  -0.48545
 Alpha  occ. eigenvalues --   -0.48332  -0.46947  -0.46384  -0.44529  -0.42865
 Alpha  occ. eigenvalues --   -0.41940  -0.41482  -0.41046  -0.39287  -0.38815
 Alpha  occ. eigenvalues --   -0.38318  -0.38258  -0.34514
 Alpha virt. eigenvalues --    0.17325   0.18800   0.19674   0.20008   0.20253
 Alpha virt. eigenvalues --    0.21614   0.21985   0.23173   0.23307   0.23984
 Alpha virt. eigenvalues --    0.25250   0.25640   0.26549   0.27121   0.27621

 Mulliken atomic charges:
              1
     1  C   -0.279613
     2  N   -0.783399
     3  C    0.821747
     4  O   -0.628281
     5  C    0.102472
     6  C   -0.472831
     7  C   -0.333827
     8  C   -0.312749
     9  C   -0.373243
    10  C   -0.177424
    11  C   -0.176631
    12  C   -0.353649
    13  C   -0.310636
    14  C   -0.329078
    15  C    0.091052
    16  C   -0.509588
    17  N   -0.787621
    18  C    0.767307
    19  C   -0.595695
    20  O   -0.613880
    21  C    0.820596
    22  O   -0.639261
    23  N   -0.805971
    24  C   -0.275617
    25  N   -0.843069
    26  C    0.744566
    27  C   -0.588674
    28  O   -0.591709
    29  H    0.186967
    30  H    0.198217
    31  H    0.162193
    32  H    0.391182
    33  H    0.199054
    34  H    0.144058
    35  H    0.212566
    36  H    0.161426
    37  H    0.181363
    38  H    0.164916
    39  H    0.179989
    40  H    0.213364
    41  H    0.175540
    42  H    0.178047
    43  H    0.169799
    44  H    0.177008
    45  H    0.160267
    46  H    0.151114
    47  H    0.199683
    48  H    0.173091
    49  H    0.185030
    50  H    0.183464
    51  H    0.148340
    52  H    0.226619
    53  H    0.389784
    54  H    0.211147
    55  H    0.209540
    56  H    0.176245
    57  H    0.395245
    58  H    0.164791
    59  H    0.199949
    60  H    0.184965
    61  H    0.382576
    62  H    0.218633
    63  H    0.177162
    64  H    0.201370
 Sum of Mulliken atomic charges =   0.00000

 Dipole moment (field-independent basis, Debye):
    X=             -2.8495    Y=             -4.4488    Z=              6.5041  Tot=              8.3794
 Quadrupole moment (field-independent basis, Debye-Ang):
   XX=           -192.9521   YY=           -155.9669   ZZ=           -173.5577
   XY=             13.3225   XZ=            -18.3249   YZ=             10.3183

 Normal termination of Gaussian 09 at Thu Dec  5 17:02:34 2019.
