 Gaussian 09, Revision A.02,
 Gaussian 09:  EM64L-G09RevA.02 11-Jun-2009

 ---------------------------------
 #SP HF/6-31G* Geom=(ModRedundant)
 ---------------------------------

 ------------
 paramfit run
 ------------
 Symbolic Z-matrix:
 Charge =  0 Multiplicity = 1

                         Standard orientation:
 ---------------------------------------------------------------------
 Center     Atomic      Atomic             Coordinates (Angstroms)
 Number     Number       Type             X           Y           Z
 ---------------------------------------------------------------------
      1          6    20001001        2.664688    1.127562   -2.392655
      2          7    20001014        3.197516    0.340368   -1.300104
      3          6    20001002        3.885775    0.946270   -0.304468
      4          8    20001024        3.892402    2.136964   -0.156317
      5          6    90000001        4.558013    0.019466    0.724375
      6          6    90000002        5.645274    0.792559    1.478054
      7          6    90000002        3.494758   -0.559558    1.696909
      8          6    90000002        2.670905    0.408390    2.565229
      9          6    90000002        1.438223    1.073930    1.921653
     10          6    20001004        1.202535    0.671793    0.484637
     11          6    20001004        0.360437   -0.242473    0.031044
     12          6    90000002       -0.573472   -1.111663    0.838558
     13          6    90000002       -2.042751   -0.653022    0.817769
     14          6    90000002       -2.644666   -0.657179   -0.593823
     15          6    90000002       -4.165056   -0.388316   -0.737962
     16          6    90000002       -4.496269   -0.385620   -2.239209
     17          7    20001014       -4.891181   -1.467768   -0.082939
     18          6    20001002       -6.246290   -1.423087    0.074355
     19          6    20001001       -6.803301   -2.399187    1.085183
     20          8    20001024       -6.948700   -0.669114   -0.539882
     21          6    20001002       -4.501857    0.933000   -0.010354
     22          8    20001024       -4.692828    0.939841    1.175990
     23          7    20001014       -4.468751    2.070103   -0.738284
     24          6    20001001       -4.823551    3.336151   -0.130470
     25          7    20001014        5.131688   -1.157773    0.056215
     26          6    20001002        6.094869   -1.087087   -0.906572
     27          6    20001001        6.798782   -2.393691   -1.208912
     28          8    20001024        6.359750   -0.070134   -1.482579
     29          1    20001035        3.451885    1.565321   -2.995679
     30          1    20001035        2.048454    1.924039   -2.002010
     31          1    20001035        2.054217    0.485855   -3.015463
     32          1    20001029        3.433409   -0.605081   -1.491845
     33          1    20001034        5.240170    1.671712    1.955456
     34          1    20001034        6.086976    0.150213    2.234049
     35          1    20001034        6.417969    1.116445    0.796169
     36          1    20001034        4.041832   -1.210915    2.374895
     37          1    20001034        2.825437   -1.201341    1.132637
     38          1    20001034        2.322728   -0.165335    3.419179
     39          1    20001034        3.313339    1.185439    2.966285
     40          1    20001034        1.526281    2.151176    1.977793
     41          1    20001034        0.579214    0.811920    2.529342
     42          1    20001033        1.793672    1.203546   -0.243311
     43          1    20001033        0.323517   -0.392266   -1.036645
     44          1    20001034       -0.246937   -1.156873    1.870448
     45          1    20001034       -0.514616   -2.130305    0.457117
     46          1    20001034       -2.602979   -1.308572    1.478657
     47          1    20001034       -2.114433    0.336675    1.249267
     48          1    20001034       -2.454533   -1.619358   -1.064562
     49          1    20001034       -2.131517    0.087291   -1.191143
     50          1    20001034       -4.323295   -1.379838   -2.634423
     51          1    20001034       -3.851177    0.296826   -2.782812
     52          1    20001034       -5.528814   -0.126496   -2.419330
     53          1    20001029       -4.402221   -1.922634    0.653761
     54          1    20001034       -7.850896   -2.560043    0.880903
     55          1    20001034       -6.704175   -1.965574    2.075779
     56          1    20001034       -6.275795   -3.346777    1.071307
     57          1    20001029       -4.548286    2.001955   -1.725371
     58          1    20001035       -4.617227    4.128767   -0.837656
     59          1    20001035       -4.229894    3.493329    0.758065
     60          1    20001035       -5.872087    3.369669    0.147382
     61          1    20001029        5.079840   -2.010057    0.568533
     62          1    20001034        7.230077   -2.337278   -2.197737
     63          1    20001034        6.128812   -3.244132   -1.150261
     64          1    20001034        7.598871   -2.541690   -0.490750
 ---------------------------------------------------------------------

 SCF Done:  E(RHF) =  -1295.58685654     A.U. after   14 cycles

 The electronic state is 1-A.
 Alpha  occ. eigenvalues --  -20.53666 -20.52353 -20.52070 -20.51588 -15.59636
 Alpha  occ. eigenvalues --  -15.57885 -15.57531 -15.57106 -11.35990 -11.34280
 Alpha  occ. eigenvalues --  -11.34028 -11.33672 -11.29100 -11.28544 -11.25242
 Alpha  occ. eigenvalues --  -11.24980 -11.24390 -11.23857 -11.23329 -11.22643
 Alpha  occ. eigenvalues --  -11.22567 -11.22366 -11.22222 -11.21798 -11.21638
 Alpha  occ. eigenvalues --  -11.21230 -11.20928 -11.20841  -1.40640  -1.39376
 Alpha  occ. eigenvalues --   -1.39228  -1.38098  -1.25494  -1.23553  -1.22599
 Alpha  occ. eigenvalues --   -1.22414  -1.10667  -1.09223  -1.07007  -1.04200
 Alpha  occ. eigenvalues --   -1.01023  -0.99322  -0.98729  -0.95857  -0.95090
 Alpha  occ. eigenvalues --   -0.94576  -0.92249  -0.87275  -0.85660  -0.82745
 Alpha  occ. eigenvalues --   -0.81442  -0.79499  -0.78640  -0.77681  -0.76869
 Alpha  occ. eigenvalues --   -0.71809  -0.71344  -0.71058  -0.69542  -0.68142
 Alpha  occ. eigenvalues --   -0.66829  -0.65818  -0.64699  -0.63974  -0.63721
 Alpha  occ. eigenvalues --   -0.62692  -0.62161  -0.61812  -0.61466  -0.61397
 Alpha  occ. eigenvalues --   -0.60958  -0.60331  -0.59223  -0.58876  -0.58651
 Alpha  occ. eigenvalues --   -0.58158  -0.57369  -0.56834  -0.56229  -0.56131
 Alpha  occ. eigenvalues --   -0.55540  -0.55006  -0.54869  -0.54740  -0.53652
 Alpha  occ. eigenvalues --   -0.53222  -0.52873  -0.52375  -0.51959  -0.51388
 Alpha  occ. eigenvalues --   -0.51181  -0.49872  -0.49589  -0.49252  -0.48739
 Alpha  occ. eigenvalues --   -0.48231  -0.46376  -0.46213  -0.44037  -0.42966
 Alpha  occ. eigenvalues --   -0.42195  -0.41505  -0.41082  -0.39604  -0.38867
 Alpha  occ. eigenvalues --   -0.38833  -0.38256  -0.33093
 Alpha virt. eigenvalues --    0.17133   0.18869   0.19613   0.19967   0.20632
 Alpha virt. eigenvalues --    0.21599   0.21987   0.22819   0.23131   0.23545
 Alpha virt. eigenvalues --    0.25511   0.25811   0.26290   0.27133   0.27356

 Mulliken atomic charges:
              1
     1  C   -0.290331
     2  N   -0.782363
     3  C    0.796800
     4  O   -0.624649
     5  C    0.117576
     6  C   -0.471576
     7  C   -0.344090
     8  C   -0.321295
     9  C   -0.351836
    10  C   -0.166107
    11  C   -0.195770
    12  C   -0.346411
    13  C   -0.308312
    14  C   -0.328435
    15  C    0.090855
    16  C   -0.509612
    17  N   -0.787712
    18  C    0.767331
    19  C   -0.595591
    20  O   -0.613812
    21  C    0.820933
    22  O   -0.640174
    23  N   -0.805587
    24  C   -0.275316
    25  N   -0.843771
    26  C    0.744864
    27  C   -0.588662
    28  O   -0.592092
    29  H    0.194832
    30  H    0.199369
    31  H    0.165619
    32  H    0.393916
    33  H    0.197615
    34  H    0.145058
    35  H    0.212149
    36  H    0.160661
    37  H    0.192394
    38  H    0.166956
    39  H    0.182661
    40  H    0.193065
    41  H    0.171337
    42  H    0.215795
    43  H    0.159581
    44  H    0.169301
    45  H    0.152899
    46  H    0.148128
    47  H    0.198055
    48  H    0.171411
    49  H    0.186108
    50  H    0.182880
    51  H    0.148750
    52  H    0.226498
    53  H    0.389615
    54  H    0.211156
    55  H    0.209134
    56  H    0.175902
    57  H    0.395540
    58  H    0.165659
    59  H    0.198738
    60  H    0.184582
    61  H    0.382726
    62  H    0.218485
    63  H    0.177261
    64  H    0.201307
 Sum of Mulliken atomic charges =   0.00000

 Dipole moment (field-independent basis, Debye):
    X=              2.4706    Y=             -6.2721    Z=             -0.0658  Tot=              6.7415
 Quadrupole moment (field-independent basis, Debye-Ang):
   XX=           -207.5105   YY=           -160.8887   ZZ=           -165.7983
   XY=            -25.7760   XZ=             13.1127   YZ=             -5.7663

 Normal termination of Gaussian 09 at Thu Dec  5 17:47:49 2019.
