 Gaussian 09, Revision A.02,
 Gaussian 09:  EM64L-G09RevA.02 11-Jun-2009

 ---------------------------------
 #SP HF/6-31G* Geom=(ModRedundant)
 ---------------------------------

 ------------
 paramfit run
 ------------
 Symbolic Z-matrix:
 Charge =  0 Multiplicity = 1

                         Standard orientation:
 ---------------------------------------------------------------------
 Center     Atomic      Atomic             Coordinates (Angstroms)
 Number     Number       Type             X           Y           Z
 ---------------------------------------------------------------------
      1          6    20001001        3.743937    2.992787   -0.269409
      2          7    20001014        4.231071    1.640352   -0.445096
      3          6    20001002        4.117256    0.745464    0.564028
      4          8    20001024        3.431035    0.943811    1.528137
      5          6    90000001        4.808728   -0.613615    0.353896
      6          6    90000002        4.992632   -1.310267    1.706190
      7          6    90000002        3.981810   -1.487714   -0.627817
      8          6    90000002        2.538375   -1.869745   -0.253406
      9          6    90000002        1.428359   -0.839281   -0.540888
     10          6    20001004        0.493870   -1.238119   -1.658893
     11          6    20001004       -0.701377   -1.795248   -1.550490
     12          6    90000002       -1.427236   -2.171544   -0.281127
     13          6    90000002       -2.540131   -1.189597    0.127299
     14          6    90000002       -3.649755   -1.080073   -0.927049
     15          6    90000002       -4.917993   -0.263456   -0.567384
     16          6    90000002       -5.833336   -0.258495   -1.802524
     17          7    20001014       -5.597971   -0.925293    0.537666
     18          6    20001002       -6.668902   -0.353258    1.161315
     19          6    20001001       -7.022191   -0.955192    2.502086
     20          8    20001024       -7.288068    0.558358    0.687256
     21          6    20001002       -4.480487    1.141528   -0.094800
     22          8    20001024       -4.139012    1.318886    1.043562
     23          7    20001014       -4.402076    2.115263   -1.027362
     24          6    20001001       -4.047919    3.466356   -0.643537
     25          7    20001014        6.106325   -0.431107   -0.312709
     26          6    20001002        7.127100    0.308416    0.207673
     27          6    20001001        8.477833    0.085519   -0.440369
     28          8    20001024        6.969036    1.087926    1.104065
     29          1    20001035        4.313517    3.532620    0.478326
     30          1    20001035        2.708585    2.970774    0.037650
     31          1    20001035        3.817299    3.512374   -1.216511
     32          1    20001029        4.987244    1.506169   -1.074764
     33          1    20001034        4.048669   -1.430774    2.215450
     34          1    20001034        5.439216   -2.287886    1.551077
     35          1    20001034        5.637928   -0.725978    2.345820
     36          1    20001034        4.540306   -2.414853   -0.736053
     37          1    20001034        3.990602   -1.011831   -1.603388
     38          1    20001034        2.302495   -2.768221   -0.816184
     39          1    20001034        2.488220   -2.148679    0.793998
     40          1    20001034        1.866131    0.123179   -0.771951
     41          1    20001034        0.872849   -0.701888    0.380179
     42          1    20001033        0.855845   -1.034809   -2.653756
     43          1    20001033       -1.231347   -2.007268   -2.465880
     44          1    20001034       -0.727704   -2.252647    0.542003
     45          1    20001034       -1.859255   -3.163109   -0.410560
     46          1    20001034       -2.943178   -1.524203    1.079121
     47          1    20001034       -2.106960   -0.215633    0.313274
     48          1    20001034       -3.990198   -2.077224   -1.197829
     49          1    20001034       -3.231837   -0.640378   -1.825027
     50          1    20001034       -6.166516   -1.272333   -1.991488
     51          1    20001034       -5.300118    0.078128   -2.685556
     52          1    20001034       -6.705306    0.359735   -1.650216
     53          1    20001029       -5.014221   -1.469916    1.130400
     54          1    20001034       -8.049410   -0.719748    2.735426
     55          1    20001034       -6.382586   -0.512097    3.259515
     56          1    20001034       -6.878191   -2.030088    2.517710
     57          1    20001029       -4.908471    2.001337   -1.873469
     58          1    20001035       -3.922020    4.058544   -1.540411
     59          1    20001035       -3.118284    3.457584   -0.093695
     60          1    20001035       -4.810883    3.920913   -0.019824
     61          1    20001029        6.361464   -1.144840   -0.958493
     62          1    20001034        9.101416    0.947538   -0.253181
     63          1    20001034        8.397985   -0.082926   -1.508452
     64          1    20001034        8.947905   -0.784712    0.006321
 ---------------------------------------------------------------------

 SCF Done:  E(RHF) =  -1295.61664998     A.U. after   14 cycles

 The electronic state is 1-A.
 Alpha  occ. eigenvalues --  -20.53584 -20.51881 -20.51655 -20.51411 -15.59559
 Alpha  occ. eigenvalues --  -15.57755 -15.57346 -15.57272 -11.35911 -11.34086
 Alpha  occ. eigenvalues --  -11.33646 -11.33503 -11.28975 -11.28397 -11.24871
 Alpha  occ. eigenvalues --  -11.24679 -11.24313 -11.24119 -11.23212 -11.22505
 Alpha  occ. eigenvalues --  -11.22349 -11.22338 -11.22228 -11.22118 -11.22036
 Alpha  occ. eigenvalues --  -11.21657 -11.21557 -11.20819  -1.40513  -1.39194
 Alpha  occ. eigenvalues --   -1.38468  -1.37916  -1.25365  -1.23374  -1.22465
 Alpha  occ. eigenvalues --   -1.21873  -1.10624  -1.09166  -1.07142  -1.04119
 Alpha  occ. eigenvalues --   -1.01229  -0.99234  -0.98595  -0.95335  -0.95087
 Alpha  occ. eigenvalues --   -0.94477  -0.91933  -0.87163  -0.85543  -0.82619
 Alpha  occ. eigenvalues --   -0.81216  -0.79325  -0.78776  -0.76984  -0.76716
 Alpha  occ. eigenvalues --   -0.72169  -0.71239  -0.70905  -0.69115  -0.67848
 Alpha  occ. eigenvalues --   -0.66431  -0.65701  -0.64200  -0.64049  -0.63441
 Alpha  occ. eigenvalues --   -0.62541  -0.62182  -0.61738  -0.61270  -0.60919
 Alpha  occ. eigenvalues --   -0.60733  -0.59851  -0.59179  -0.58635  -0.58394
 Alpha  occ. eigenvalues --   -0.57995  -0.57364  -0.57006  -0.56167  -0.55989
 Alpha  occ. eigenvalues --   -0.55048  -0.54656  -0.54615  -0.54343  -0.54180
 Alpha  occ. eigenvalues --   -0.52901  -0.52666  -0.52451  -0.52021  -0.51686
 Alpha  occ. eigenvalues --   -0.50987  -0.50037  -0.49623  -0.48728  -0.48458
 Alpha  occ. eigenvalues --   -0.47719  -0.47474  -0.46208  -0.44497  -0.42791
 Alpha  occ. eigenvalues --   -0.41852  -0.41326  -0.40895  -0.39167  -0.38673
 Alpha  occ. eigenvalues --   -0.38123  -0.38087  -0.34442
 Alpha virt. eigenvalues --    0.17609   0.18871   0.19831   0.20189   0.20533
 Alpha virt. eigenvalues --    0.21776   0.22121   0.23445   0.23980   0.24381
 Alpha virt. eigenvalues --    0.24904   0.25472   0.26568   0.27015   0.27509

 Mulliken atomic charges:
              1
     1  C   -0.279346
     2  N   -0.783737
     3  C    0.818037
     4  O   -0.625115
     5  C    0.101559
     6  C   -0.472421
     7  C   -0.330004
     8  C   -0.318941
     9  C   -0.369210
    10  C   -0.172497
    11  C   -0.175822
    12  C   -0.353350
    13  C   -0.311182
    14  C   -0.329105
    15  C    0.091222
    16  C   -0.509510
    17  N   -0.787678
    18  C    0.767311
    19  C   -0.595718
    20  O   -0.614300
    21  C    0.820335
    22  O   -0.638019
    23  N   -0.806242
    24  C   -0.275469
    25  N   -0.843363
    26  C    0.744669
    27  C   -0.588672
    28  O   -0.591224
    29  H    0.186505
    30  H    0.199047
    31  H    0.161561
    32  H    0.390239
    33  H    0.198280
    34  H    0.143605
    35  H    0.213066
    36  H    0.160587
    37  H    0.175505
    38  H    0.174412
    39  H    0.181991
    40  H    0.193212
    41  H    0.192686
    42  H    0.169018
    43  H    0.170772
    44  H    0.178408
    45  H    0.160727
    46  H    0.152088
    47  H    0.200977
    48  H    0.173113
    49  H    0.184151
    50  H    0.183512
    51  H    0.147968
    52  H    0.226311
    53  H    0.390170
    54  H    0.210729
    55  H    0.210148
    56  H    0.176313
    57  H    0.394985
    58  H    0.163599
    59  H    0.200127
    60  H    0.185105
    61  H    0.382026
    62  H    0.218743
    63  H    0.176968
    64  H    0.201135
 Sum of Mulliken atomic charges =   0.00000

 Dipole moment (field-independent basis, Debye):
    X=              4.0413    Y=             -4.2728    Z=             -6.7008  Tot=              8.9157
 Quadrupole moment (field-independent basis, Debye-Ang):
   XX=           -167.6032   YY=           -162.1830   ZZ=           -170.9357
   XY=             -3.4488   XZ=            -19.1385   YZ=            -15.5513

 Normal termination of Gaussian 09 at Thu Dec  5 17:28:49 2019.
