 Gaussian 09, Revision A.02,
 Gaussian 09:  EM64L-G09RevA.02 11-Jun-2009

 ---------------------------------
 #SP HF/6-31G* Geom=(ModRedundant)
 ---------------------------------

 ------------
 paramfit run
 ------------
 Symbolic Z-matrix:
 Charge =  0 Multiplicity = 1

                         Standard orientation:
 ---------------------------------------------------------------------
 Center     Atomic      Atomic             Coordinates (Angstroms)
 Number     Number       Type             X           Y           Z
 ---------------------------------------------------------------------
      1          6    20001001        1.869549   -1.882077    1.689091
      2          7    20001014        2.943110   -0.987394    1.309287
      3          6    20001002        3.015353   -0.519820    0.041113
      4          8    20001024        2.109886   -0.627202   -0.738852
      5          6    90000001        4.275703    0.286988   -0.319392
      6          6    90000002        4.433820    0.338298   -1.842615
      7          6    90000002        4.190623    1.712223    0.291400
      8          6    90000002        3.035131    2.637812   -0.130215
      9          6    90000002        1.680253    2.461038    0.583713
     10          6    20001004        0.547086    3.235431   -0.047576
     11          6    20001004       -0.369122    2.782489   -0.887911
     12          6    90000002       -0.508129    1.378269   -1.425124
     13          6    90000002       -1.617887    0.549725   -0.753173
     14          6    90000002       -3.011020    1.166593   -0.936398
     15          6    90000002       -4.238822    0.345581   -0.464077
     16          6    90000002       -5.491444    1.204850   -0.700818
     17          7    20001014       -4.323156   -0.866556   -1.267283
     18          6    20001002       -5.223140   -1.851589   -0.979540
     19          6    20001001       -4.944822   -3.182300   -1.640263
     20          8    20001024       -6.166327   -1.681488   -0.258010
     21          6    20001002       -4.018595   -0.064583    1.009690
     22          8    20001024       -3.364551   -1.036561    1.276928
     23          7    20001014       -4.497858    0.762260    1.963954
     24          6    20001001       -4.370575    0.412292    3.363783
     25          7    20001014        5.464601   -0.314137    0.302381
     26          6    20001002        5.885279   -1.587741    0.056142
     27          6    20001001        7.299459   -1.895385    0.502877
     28          8    20001024        5.186170   -2.410227   -0.464342
     29          1    20001035        1.939671   -2.835690    1.178547
     30          1    20001035        0.917400   -1.432771    1.447721
     31          1    20001035        1.918289   -2.046206    2.758221
     32          1    20001029        3.801449   -1.070003    1.801948
     33          1    20001034        3.557684    0.758253   -2.312674
     34          1    20001034        5.297653    0.945686   -2.095814
     35          1    20001034        4.574156   -0.656312   -2.240087
     36          1    20001034        5.116837    2.207727    0.008867
     37          1    20001034        4.210319    1.624816    1.373182
     38          1    20001034        3.371456    3.653583    0.056097
     39          1    20001034        2.873721    2.565685   -1.200784
     40          1    20001034        1.768478    2.747527    1.623667
     41          1    20001034        1.454449    1.400450    0.583706
     42          1    20001033        0.489893    4.274851    0.232513
     43          1    20001033       -1.110613    3.485207   -1.234522
     44          1    20001034        0.426780    0.841280   -1.319984
     45          1    20001034       -0.706409    1.435068   -2.494728
     46          1    20001034       -1.581064   -0.452482   -1.171024
     47          1    20001034       -1.395145    0.441499    0.300155
     48          1    20001034       -3.172621    1.387024   -1.989408
     49          1    20001034       -3.041331    2.114827   -0.412677
     50          1    20001034       -5.614674    1.352023   -1.767465
     51          1    20001034       -5.387035    2.185166   -0.247539
     52          1    20001034       -6.381489    0.725263   -0.321929
     53          1    20001029       -3.460200   -1.188734   -1.641744
     54          1    20001034       -5.856489   -3.759379   -1.670302
     55          1    20001034       -4.212794   -3.718334   -1.043667
     56          1    20001034       -4.550001   -3.065249   -2.643656
     57          1    20001029       -5.218003    1.399903    1.718776
     58          1    20001035       -4.702766    1.251130    3.961211
     59          1    20001035       -3.336507    0.202681    3.594850
     60          1    20001035       -4.962204   -0.461921    3.615739
     61          1    20001029        6.158770    0.329055    0.612189
     62          1    20001034        7.400875   -2.963315    0.630209
     63          1    20001034        7.556874   -1.390898    1.427421
     64          1    20001034        7.994101   -1.571364   -0.265422
 ---------------------------------------------------------------------

 SCF Done:  E(RHF) =  -1295.62216965     A.U. after   14 cycles

 The electronic state is 1-A.
 Alpha  occ. eigenvalues --  -20.53697 -20.52120 -20.51444 -20.51068 -15.59687
 Alpha  occ. eigenvalues --  -15.57474 -15.57431 -15.56807 -11.36017 -11.34060
 Alpha  occ. eigenvalues --  -11.33635 -11.33143 -11.29183 -11.27830 -11.24764
 Alpha  occ. eigenvalues --  -11.24517 -11.24377 -11.24234 -11.22574 -11.22392
 Alpha  occ. eigenvalues --  -11.21904 -11.21535 -11.21481 -11.21313 -11.21184
 Alpha  occ. eigenvalues --  -11.21001 -11.20980 -11.20356  -1.40649  -1.38992
 Alpha  occ. eigenvalues --   -1.38796  -1.37537  -1.25517  -1.22850  -1.22180
 Alpha  occ. eigenvalues --   -1.22029  -1.10147  -1.08689  -1.06709  -1.03651
 Alpha  occ. eigenvalues --   -1.00937  -0.99122  -0.98181  -0.95342  -0.94782
 Alpha  occ. eigenvalues --   -0.94195  -0.91267  -0.87004  -0.84943  -0.82428
 Alpha  occ. eigenvalues --   -0.80587  -0.78912  -0.78700  -0.77192  -0.76328
 Alpha  occ. eigenvalues --   -0.71636  -0.71131  -0.70534  -0.69191  -0.67411
 Alpha  occ. eigenvalues --   -0.66403  -0.65603  -0.64139  -0.63565  -0.62938
 Alpha  occ. eigenvalues --   -0.62883  -0.62327  -0.61034  -0.60900  -0.60742
 Alpha  occ. eigenvalues --   -0.60459  -0.59661  -0.58867  -0.58546  -0.58077
 Alpha  occ. eigenvalues --   -0.57978  -0.57332  -0.56170  -0.55815  -0.55458
 Alpha  occ. eigenvalues --   -0.54847  -0.54560  -0.54263  -0.54156  -0.53239
 Alpha  occ. eigenvalues --   -0.52767  -0.52428  -0.52210  -0.51874  -0.51142
 Alpha  occ. eigenvalues --   -0.51036  -0.50157  -0.49213  -0.48676  -0.48047
 Alpha  occ. eigenvalues --   -0.47199  -0.46783  -0.45113  -0.43876  -0.42949
 Alpha  occ. eigenvalues --   -0.42061  -0.40897  -0.40454  -0.39414  -0.38306
 Alpha  occ. eigenvalues --   -0.38291  -0.37754  -0.33720
 Alpha virt. eigenvalues --    0.18470   0.18777   0.19944   0.20042   0.20261
 Alpha virt. eigenvalues --    0.22205   0.22655   0.23553   0.24018   0.24339
 Alpha virt. eigenvalues --    0.25511   0.25837   0.26407   0.26960   0.27953

 Mulliken atomic charges:
              1
     1  C   -0.284294
     2  N   -0.779884
     3  C    0.823747
     4  O   -0.633385
     5  C    0.101741
     6  C   -0.472549
     7  C   -0.333110
     8  C   -0.313541
     9  C   -0.361034
    10  C   -0.180192
    11  C   -0.166228
    12  C   -0.391786
    13  C   -0.308855
    14  C   -0.328442
    15  C    0.091482
    16  C   -0.509292
    17  N   -0.787918
    18  C    0.766689
    19  C   -0.595199
    20  O   -0.616356
    21  C    0.820736
    22  O   -0.640200
    23  N   -0.806039
    24  C   -0.273764
    25  N   -0.842955
    26  C    0.744901
    27  C   -0.588835
    28  O   -0.591613
    29  H    0.186082
    30  H    0.206452
    31  H    0.165145
    32  H    0.391373
    33  H    0.197776
    34  H    0.145286
    35  H    0.212528
    36  H    0.162953
    37  H    0.177898
    38  H    0.160470
    39  H    0.184256
    40  H    0.161235
    41  H    0.202206
    42  H    0.167143
    43  H    0.167851
    44  H    0.247037
    45  H    0.153987
    46  H    0.159635
    47  H    0.190234
    48  H    0.173056
    49  H    0.180238
    50  H    0.183700
    51  H    0.147049
    52  H    0.224291
    53  H    0.392520
    54  H    0.208765
    55  H    0.209609
    56  H    0.178021
    57  H    0.395162
    58  H    0.163192
    59  H    0.196139
    60  H    0.184102
    61  H    0.382740
    62  H    0.219242
    63  H    0.177643
    64  H    0.201156
 Sum of Mulliken atomic charges =   0.00000

 Dipole moment (field-independent basis, Debye):
    X=              6.0715    Y=              4.4540    Z=              2.1238  Tot=              7.8238
 Quadrupole moment (field-independent basis, Debye-Ang):
   XX=           -146.7299   YY=           -173.3052   ZZ=           -162.8784
   XY=             -5.2315   XZ=             15.0424   YZ=              2.4729

 Normal termination of Gaussian 09 at Thu Dec  5 17:08:41 2019.
