 Gaussian 09, Revision A.02,
 Gaussian 09:  EM64L-G09RevA.02 11-Jun-2009

 ---------------------------------
 #SP HF/6-31G* Geom=(ModRedundant)
 ---------------------------------

 ------------
 paramfit run
 ------------
 Symbolic Z-matrix:
 Charge =  0 Multiplicity = 1

                         Standard orientation:
 ---------------------------------------------------------------------
 Center     Atomic      Atomic             Coordinates (Angstroms)
 Number     Number       Type             X           Y           Z
 ---------------------------------------------------------------------
      1          6    20001001        3.246189    2.861957   -0.721576
      2          7    20001014        3.921366    1.580848   -0.709617
      3          6    20001002        3.764563    0.744994    0.343411
      4          8    20001024        2.916304    0.908250    1.176208
      5          6    90000001        4.646139   -0.516805    0.351984
      6          6    90000002        4.702220   -1.093926    1.770303
      7          6    90000002        4.100100   -1.557025   -0.663589
      8          6    90000002        2.675640   -2.109084   -0.474432
      9          6    90000002        1.503455   -1.261341   -1.007305
     10          6    20001004        0.409181   -2.069493   -1.664366
     11          6    20001004       -0.734732   -2.463324   -1.128533
     12          6    90000002       -1.229334   -2.202997    0.274090
     13          6    90000002       -2.287879   -1.090080    0.376370
     14          6    90000002       -3.559279   -1.406638   -0.422533
     15          6    90000002       -4.774144   -0.455941   -0.264649
     16          6    90000002       -5.880824   -0.955471   -1.207613
     17          7    20001014       -5.242254   -0.526224    1.112836
     18          6    20001002       -6.211757    0.313173    1.580311
     19          6    20001001       -6.320618    0.385465    3.086209
     20          8    20001024       -6.927400    0.948493    0.856872
     21          6    20001002       -4.306184    0.990384   -0.543728
     22          8    20001024       -3.786600    1.637497    0.325299
     23          7    20001014       -4.411786    1.444912   -1.811100
     24          6    20001001       -4.039072    2.807616   -2.130980
     25          7    20001014        5.998669   -0.200635   -0.129813
     26          6    20001002        6.823848    0.703778    0.470844
     27          6    20001001        8.276619    0.627704    0.049195
     28          8    20001024        6.430315    1.509737    1.265641
     29          1    20001035        3.618938    3.521493    0.053678
     30          1    20001035        2.186651    2.717534   -0.569118
     31          1    20001035        3.400951    3.325238   -1.687896
     32          1    20001029        4.777662    1.511952   -1.207910
     33          1    20001034        3.712938   -1.310259    2.143739
     34          1    20001034        5.287208   -2.008803    1.765106
     35          1    20001034        5.160473   -0.386939    2.446393
     36          1    20001034        4.781006   -2.403639   -0.610392
     37          1    20001034        4.201581   -1.147631   -1.663778
     38          1    20001034        2.646001   -3.065486   -0.988276
     39          1    20001034        2.497562   -2.324904    0.573940
     40          1    20001034        1.868412   -0.523043   -1.709507
     41          1    20001034        1.104046   -0.703676   -0.167473
     42          1    20001033        0.595550   -2.345694   -2.689595
     43          1    20001033       -1.402250   -3.033670   -1.755340
     44          1    20001034       -0.401266   -1.943992    0.922694
     45          1    20001034       -1.647357   -3.127413    0.670708
     46          1    20001034       -2.517978   -0.948533    1.428698
     47          1    20001034       -1.858854   -0.156410    0.037210
     48          1    20001034       -3.910228   -2.403061   -0.162708
     49          1    20001034       -3.308720   -1.430956   -1.476563
     50          1    20001034       -6.210595   -1.930910   -0.869454
     51          1    20001034       -5.511090   -1.070909   -2.221196
     52          1    20001034       -6.733475   -0.293108   -1.207990
     53          1    20001029       -4.552735   -0.778750    1.783288
     54          1    20001034       -7.301621    0.748482    3.352498
     55          1    20001034       -5.577955    1.087422    3.453405
     56          1    20001034       -6.144361   -0.576629    3.554920
     57          1    20001029       -5.047503    0.991963   -2.424299
     58          1    20001035       -4.080702    2.934172   -3.204838
     59          1    20001035       -3.031482    2.999292   -1.792384
     60          1    20001035       -4.701504    3.527242   -1.660793
     61          1    20001029        6.439739   -0.912259   -0.668883
     62          1    20001034        8.749484    1.577387    0.252850
     63          1    20001034        8.386980    0.382128   -1.001074
     64          1    20001034        8.776791   -0.139422    0.631558
 ---------------------------------------------------------------------

 SCF Done:  E(RHF) =  -1295.61914219     A.U. after   14 cycles

 The electronic state is 1-A.
 Alpha  occ. eigenvalues --  -20.53551 -20.51751 -20.51624 -20.51292 -15.59529
 Alpha  occ. eigenvalues --  -15.57669 -15.57201 -15.57189 -11.35878 -11.33952
 Alpha  occ. eigenvalues --  -11.33617 -11.33386 -11.28944 -11.28259 -11.24839
 Alpha  occ. eigenvalues --  -11.24535 -11.24284 -11.24109 -11.23042 -11.22545
 Alpha  occ. eigenvalues --  -11.22193 -11.22136 -11.22095 -11.21938 -11.21883
 Alpha  occ. eigenvalues --  -11.21539 -11.21486 -11.20824  -1.40479  -1.39068
 Alpha  occ. eigenvalues --   -1.38433  -1.37793  -1.25330  -1.23232  -1.22377
 Alpha  occ. eigenvalues --   -1.21779  -1.10490  -1.09070  -1.07045  -1.04014
 Alpha  occ. eigenvalues --   -1.01165  -0.99178  -0.98474  -0.95233  -0.95018
 Alpha  occ. eigenvalues --   -0.94401  -0.91771  -0.87075  -0.85404  -0.82494
 Alpha  occ. eigenvalues --   -0.81094  -0.79201  -0.78732  -0.76896  -0.76604
 Alpha  occ. eigenvalues --   -0.72121  -0.71134  -0.70840  -0.69153  -0.67749
 Alpha  occ. eigenvalues --   -0.66453  -0.65519  -0.64237  -0.63872  -0.63194
 Alpha  occ. eigenvalues --   -0.62559  -0.62141  -0.61560  -0.61141  -0.60847
 Alpha  occ. eigenvalues --   -0.60561  -0.59710  -0.59056  -0.58517  -0.58362
 Alpha  occ. eigenvalues --   -0.57942  -0.57219  -0.56817  -0.55995  -0.55802
 Alpha  occ. eigenvalues --   -0.54944  -0.54865  -0.54524  -0.54174  -0.53888
 Alpha  occ. eigenvalues --   -0.52761  -0.52698  -0.52386  -0.51978  -0.51578
 Alpha  occ. eigenvalues --   -0.50938  -0.49868  -0.49504  -0.48536  -0.48532
 Alpha  occ. eigenvalues --   -0.47775  -0.47257  -0.46009  -0.44516  -0.42779
 Alpha  occ. eigenvalues --   -0.41793  -0.41196  -0.40765  -0.39120  -0.38558
 Alpha  occ. eigenvalues --   -0.38015  -0.37988  -0.34339
 Alpha virt. eigenvalues --    0.17777   0.18900   0.19960   0.20191   0.20404
 Alpha virt. eigenvalues --    0.21904   0.22248   0.23578   0.23874   0.24644
 Alpha virt. eigenvalues --    0.24986   0.25360   0.26657   0.27171   0.27766

 Mulliken atomic charges:
              1
     1  C   -0.279734
     2  N   -0.783724
     3  C    0.823662
     4  O   -0.627277
     5  C    0.100543
     6  C   -0.472286
     7  C   -0.329355
     8  C   -0.315228
     9  C   -0.374495
    10  C   -0.173891
    11  C   -0.173650
    12  C   -0.356046
    13  C   -0.310926
    14  C   -0.329300
    15  C    0.091437
    16  C   -0.509454
    17  N   -0.787767
    18  C    0.767245
    19  C   -0.595699
    20  O   -0.614821
    21  C    0.820063
    22  O   -0.637215
    23  N   -0.806354
    24  C   -0.274907
    25  N   -0.842993
    26  C    0.744681
    27  C   -0.588686
    28  O   -0.591107
    29  H    0.185983
    30  H    0.201017
    31  H    0.161188
    32  H    0.390029
    33  H    0.197087
    34  H    0.143758
    35  H    0.213139
    36  H    0.160768
    37  H    0.176436
    38  H    0.169022
    39  H    0.181194
    40  H    0.176462
    41  H    0.208657
    42  H    0.169431
    43  H    0.170978
    44  H    0.184255
    45  H    0.160350
    46  H    0.153876
    47  H    0.201338
    48  H    0.172977
    49  H    0.183274
    50  H    0.183528
    51  H    0.147662
    52  H    0.225961
    53  H    0.390705
    54  H    0.210217
    55  H    0.210734
    56  H    0.176492
    57  H    0.394913
    58  H    0.163173
    59  H    0.198998
    60  H    0.185035
    61  H    0.381902
    62  H    0.218799
    63  H    0.176992
    64  H    0.200955
 Sum of Mulliken atomic charges =   0.00000

 Dipole moment (field-independent basis, Debye):
    X=              4.8122    Y=             -4.9166    Z=             -5.3310  Tot=              8.7034
 Quadrupole moment (field-independent basis, Debye-Ang):
   XX=           -154.8456   YY=           -172.3458   ZZ=           -162.0296
   XY=             -0.5973   XZ=            -15.6309   YZ=            -13.3932

 Normal termination of Gaussian 09 at Thu Dec  5 17:44:36 2019.
