 Gaussian 09, Revision A.02,
 Gaussian 09:  EM64L-G09RevA.02 11-Jun-2009

 ---------------------------------
 #SP HF/6-31G* Geom=(ModRedundant)
 ---------------------------------

 ------------
 paramfit run
 ------------
 Symbolic Z-matrix:
 Charge =  0 Multiplicity = 1

                         Standard orientation:
 ---------------------------------------------------------------------
 Center     Atomic      Atomic             Coordinates (Angstroms)
 Number     Number       Type             X           Y           Z
 ---------------------------------------------------------------------
      1          6    20001001        0.545898    1.305502   -0.276453
      2          7    20001014        1.855584    0.775903   -0.595029
      3          6    20001002        2.554769    0.094983    0.342839
      4          8    20001024        2.057744   -0.291131    1.364420
      5          6    90000001        4.000292   -0.285749   -0.024441
      6          6    90000002        4.784344   -0.613391    1.250610
      7          6    90000002        4.002547   -1.481036   -1.015846
      8          6    90000002        3.376563   -2.817010   -0.576580
      9          6    90000002        1.847314   -2.965932   -0.702498
     10          6    20001004        1.121912   -3.000860    0.622210
     11          6    20001004        0.502817   -2.001200    1.228969
     12          6    90000002        0.369050   -0.576461    0.747328
     13          6    90000002       -1.007298   -0.236996    0.147333
     14          6    90000002       -2.151297   -0.406379    1.156040
     15          6    90000002       -3.566604    0.070592    0.738848
     16          6    90000002       -4.528541   -0.266032    1.889854
     17          7    20001014       -3.530830    1.513442    0.542802
     18          6    20001002       -4.600259    2.190496    0.031945
     19          6    20001001       -4.293942    3.584897   -0.464662
     20          8    20001024       -5.702943    1.721093   -0.021852
     21          6    20001002       -3.931412   -0.592193   -0.608874
     22          8    20001024       -3.550641   -0.112546   -1.642742
     23          7    20001014       -4.595119   -1.767577   -0.564742
     24          6    20001001       -5.012166   -2.416511   -1.790775
     25          7    20001014        4.647800    0.809771   -0.760647
     26          6    20001002        4.824360    2.062745   -0.252165
     27          6    20001001        5.810877    2.929664   -1.006722
     28          8    20001024        4.234913    2.457427    0.713712
     29          1    20001035        0.598332    2.087382    0.472456
     30          1    20001035       -0.086772    0.513933    0.097539
     31          1    20001035        0.106291    1.707465   -1.180624
     32          1    20001029        2.386461    1.255855   -1.283580
     33          1    20001034        4.306754   -1.402309    1.811368
     34          1    20001034        5.790266   -0.925331    0.985937
     35          1    20001034        4.842009    0.255013    1.890512
     36          1    20001034        5.049539   -1.675829   -1.237393
     37          1    20001034        3.549955   -1.156310   -1.947508
     38          1    20001034        3.830749   -3.586778   -1.193663
     39          1    20001034        3.662829   -3.042593    0.445446
     40          1    20001034        1.606270   -3.860689   -1.261667
     41          1    20001034        1.492995   -2.134323   -1.301431
     42          1    20001033        1.113380   -3.959439    1.115329
     43          1    20001033        0.031785   -2.214954    2.175647
     44          1    20001034        1.126165   -0.358293    0.003927
     45          1    20001034        0.565245    0.091781    1.584916
     46          1    20001034       -0.964617    0.784363   -0.220604
     47          1    20001034       -1.182167   -0.859054   -0.720593
     48          1    20001034       -1.904505    0.122686    2.074036
     49          1    20001034       -2.232167   -1.455606    1.414756
     50          1    20001034       -4.251421    0.322246    2.756870
     51          1    20001034       -4.455559   -1.311774    2.169992
     52          1    20001034       -5.551425   -0.031109    1.636361
     53          1    20001029       -2.644149    1.885797    0.290091
     54          1    20001034       -5.207851    4.158497   -0.493173
     55          1    20001034       -3.895934    3.513519   -1.472442
     56          1    20001034       -3.562492    4.088525    0.158012
     57          1    20001029       -5.090553   -1.999871    0.263447
     58          1    20001035       -5.413616   -3.391233   -1.546487
     59          1    20001035       -4.162193   -2.539561   -2.445779
     60          1    20001035       -5.768015   -1.840185   -2.314506
     61          1    20001029        5.278834    0.530591   -1.478563
     62          1    20001034        5.599170    3.967088   -0.792473
     63          1    20001034        5.770124    2.761720   -2.077089
     64          1    20001034        6.816306    2.704496   -0.665820
 ---------------------------------------------------------------------

 SCF Done:  E(RHF) =  -1295.07458915     A.U. after   16 cycles

 The electronic state is 1-A.
 Alpha  occ. eigenvalues --  -20.53924 -20.51575 -20.51408 -20.51060 -15.59958
 Alpha  occ. eigenvalues --  -15.58590 -15.57407 -15.56969 -11.36238 -11.34973
 Alpha  occ. eigenvalues --  -11.33784 -11.33110 -11.29668 -11.27710 -11.24699
 Alpha  occ. eigenvalues --  -11.24554 -11.24530 -11.22725 -11.22159 -11.21966
 Alpha  occ. eigenvalues --  -11.21748 -11.21255 -11.21039 -11.20361 -11.20152
 Alpha  occ. eigenvalues --  -11.18977 -11.18310 -11.17926  -1.44101  -1.40724
 Alpha  occ. eigenvalues --   -1.38859  -1.37589  -1.26413  -1.24729  -1.22952
 Alpha  occ. eigenvalues --   -1.22128  -1.15736  -1.10119  -1.06821  -1.05858
 Alpha  occ. eigenvalues --   -1.01951  -0.99461  -0.98674  -0.96433  -0.95438
 Alpha  occ. eigenvalues --   -0.94225  -0.90802  -0.90305  -0.85868  -0.83917
 Alpha  occ. eigenvalues --   -0.81179  -0.80972  -0.78935  -0.78836  -0.76365
 Alpha  occ. eigenvalues --   -0.73470  -0.71634  -0.70959  -0.70609  -0.68922
 Alpha  occ. eigenvalues --   -0.68087  -0.66360  -0.66182  -0.64316  -0.63799
 Alpha  occ. eigenvalues --   -0.63012  -0.62945  -0.62601  -0.61787  -0.61032
 Alpha  occ. eigenvalues --   -0.60911  -0.60440  -0.59523  -0.58679  -0.58270
 Alpha  occ. eigenvalues --   -0.57928  -0.57269  -0.57031  -0.56915  -0.55376
 Alpha  occ. eigenvalues --   -0.54728  -0.54425  -0.54320  -0.54003  -0.53264
 Alpha  occ. eigenvalues --   -0.53115  -0.52258  -0.52168  -0.51544  -0.50946
 Alpha  occ. eigenvalues --   -0.50139  -0.49741  -0.48860  -0.48622  -0.48175
 Alpha  occ. eigenvalues --   -0.46816  -0.45296  -0.43092  -0.42762  -0.41097
 Alpha  occ. eigenvalues --   -0.40603  -0.40532  -0.39624  -0.38399  -0.37778
 Alpha  occ. eigenvalues --   -0.34913  -0.32287  -0.31435
 Alpha virt. eigenvalues --    0.16633   0.18597   0.19797   0.19865   0.20198
 Alpha virt. eigenvalues --    0.22155   0.22754   0.23488   0.23800   0.24578
 Alpha virt. eigenvalues --    0.25517   0.26301   0.26783   0.27319   0.27745

 Mulliken atomic charges:
              1
     1  C   -0.330705
     2  N   -0.830044
     3  C    0.798488
     4  O   -0.614345
     5  C    0.115403
     6  C   -0.471448
     7  C   -0.336675
     8  C   -0.315248
     9  C   -0.373005
    10  C   -0.192074
    11  C   -0.086991
    12  C   -0.490830
    13  C   -0.431577
    14  C   -0.314301
    15  C    0.093085
    16  C   -0.509410
    17  N   -0.789203
    18  C    0.768483
    19  C   -0.596445
    20  O   -0.614956
    21  C    0.823926
    22  O   -0.644253
    23  N   -0.805607
    24  C   -0.273844
    25  N   -0.843028
    26  C    0.745884
    27  C   -0.588965
    28  O   -0.591617
    29  H    0.170879
    30  H    0.259175
    31  H    0.157705
    32  H    0.402990
    33  H    0.201197
    34  H    0.146073
    35  H    0.211979
    36  H    0.163945
    37  H    0.179321
    38  H    0.165774
    39  H    0.186462
    40  H    0.176834
    41  H    0.180989
    42  H    0.163654
    43  H    0.166502
    44  H    0.244288
    45  H    0.257627
    46  H    0.240183
    47  H    0.206529
    48  H    0.174767
    49  H    0.181329
    50  H    0.184103
    51  H    0.149030
    52  H    0.222733
    53  H    0.388448
    54  H    0.210244
    55  H    0.206114
    56  H    0.177853
    57  H    0.395689
    58  H    0.163787
    59  H    0.196258
    60  H    0.183255
    61  H    0.383741
    62  H    0.219849
    63  H    0.178560
    64  H    0.201433
 Sum of Mulliken atomic charges =   0.00000

 Dipole moment (field-independent basis, Debye):
    X=              5.9529    Y=             -1.4642    Z=             -2.6501  Tot=              6.6786
 Quadrupole moment (field-independent basis, Debye-Ang):
   XX=           -161.6497   YY=           -162.3346   ZZ=           -175.4526
   XY=             11.2300   XZ=            -25.6002   YZ=             -5.4569

 Normal termination of Gaussian 09 at Thu Dec  5 17:53:32 2019.
