 Gaussian 09, Revision A.02,
 Gaussian 09:  EM64L-G09RevA.02 11-Jun-2009

 ---------------------------------
 #SP HF/6-31G* Geom=(ModRedundant)
 ---------------------------------

 ------------
 paramfit run
 ------------
 Symbolic Z-matrix:
 Charge =  0 Multiplicity = 1

                         Standard orientation:
 ---------------------------------------------------------------------
 Center     Atomic      Atomic             Coordinates (Angstroms)
 Number     Number       Type             X           Y           Z
 ---------------------------------------------------------------------
      1          6    20001001        0.536858    1.148493    0.435509
      2          7    20001014        1.781161    0.725855   -0.173040
      3          6    20001002        2.645345   -0.047648    0.524805
      4          8    20001024        2.340641   -0.593228    1.549131
      5          6    90000001        4.012115   -0.310322   -0.132711
      6          6    90000002        5.011696   -0.777459    0.930522
      7          6    90000002        3.864904   -1.355038   -1.272228
      8          6    90000002        3.350155   -2.765073   -0.930951
      9          6    90000002        1.825373   -2.961535   -0.816585
     10          6    20001004        1.279187   -2.736941    0.573924
     11          6    20001004        0.700703   -1.644655    1.046179
     12          6    90000002        0.444103   -0.350739    0.311540
     13          6    90000002       -1.011605   -0.163536   -0.152609
     14          6    90000002       -2.007422   -0.141936    1.014779
     15          6    90000002       -3.484115    0.216564    0.705743
     16          6    90000002       -4.273934    0.106518    2.020097
     17          7    20001014       -3.536686    1.589321    0.221692
     18          6    20001002       -4.691505    2.130171   -0.265062
     19          6    20001001       -4.512732    3.398523   -1.067638
     20          8    20001024       -5.770457    1.641731   -0.074190
     21          6    20001002       -3.990627   -0.713442   -0.419982
     22          8    20001024       -3.767661   -0.448969   -1.570751
     23          7    20001014       -4.591368   -1.865700   -0.052027
     24          6    20001001       -5.134532   -2.758143   -1.055382
     25          7    20001014        4.501071    0.904013   -0.801848
     26          6    20001002        4.739415    2.080684   -0.155078
     27          6    20001001        5.563321    3.086172   -0.932440
     28          8    20001024        4.319220    2.311291    0.943283
     29          1    20001035        0.703665    1.820280    1.269673
     30          1    20001035       -0.006138    0.285839    0.792867
     31          1    20001035       -0.060592    1.652638   -0.313653
     32          1    20001029        2.175232    1.319480   -0.864851
     33          1    20001034        4.653770   -1.656681    1.444126
     34          1    20001034        5.962130   -1.005480    0.457321
     35          1    20001034        5.163087   -0.004698    1.670014
     36          1    20001034        4.861041   -1.471363   -1.693418
     37          1    20001034        3.251361   -0.924053   -2.057147
     38          1    20001034        3.704840   -3.421119   -1.720520
     39          1    20001034        3.813735   -3.117771   -0.015488
     40          1    20001034        1.553311   -3.955472   -1.147395
     41          1    20001034        1.360921   -2.275725   -1.516431
     42          1    20001033        1.376031   -3.574571    1.245572
     43          1    20001033        0.365508   -1.668165    2.071289
     44          1    20001034        1.088756   -0.276709   -0.555874
     45          1    20001034        0.717508    0.477637    0.963949
     46          1    20001034       -1.061194    0.761673   -0.719974
     47          1    20001034       -1.269804   -0.952558   -0.846588
     48          1    20001034       -1.667467    0.567470    1.766249
     49          1    20001034       -2.008547   -1.117357    1.486904
     50          1    20001034       -3.913087    0.863960    2.706137
     51          1    20001034       -4.120029   -0.858604    2.491513
     52          1    20001034       -5.330213    0.267960    1.865340
     53          1    20001029       -2.707058    1.916628   -0.217969
     54          1    20001034       -5.446741    3.939195   -1.086644
     55          1    20001034       -4.245372    3.129278   -2.085062
     56          1    20001034       -3.729635    4.030616   -0.663162
     57          1    20001029       -4.965220   -1.931962    0.865118
     58          1    20001035       -5.458353   -3.668824   -0.568843
     59          1    20001035       -4.371649   -2.998511   -1.781232
     60          1    20001035       -5.975974   -2.313391   -1.576845
     61          1    20001029        5.003068    0.755040   -1.648814
     62          1    20001034        5.372374    4.073553   -0.537988
     63          1    20001034        5.340556    3.066949   -1.993362
     64          1    20001034        6.616754    2.859844   -0.802616
 ---------------------------------------------------------------------

 SCF Done:  E(RHF) =  -1294.29939538     A.U. after   37 cycles

 The electronic state is 1-A.
 Alpha  occ. eigenvalues --  -20.54821 -20.53671 -20.52263 -20.52080 -15.59867
 Alpha  occ. eigenvalues --  -15.58343 -15.58213 -15.57831 -11.35987 -11.35371
 Alpha  occ. eigenvalues --  -11.34464 -11.34136 -11.30106 -11.29149 -11.25222
 Alpha  occ. eigenvalues --  -11.24876 -11.24669 -11.24334 -11.24295 -11.22595
 Alpha  occ. eigenvalues --  -11.22476 -11.22240 -11.22061 -11.21492 -11.20919
 Alpha  occ. eigenvalues --  -11.19114 -11.18494 -11.16151  -1.51032  -1.41050
 Alpha  occ. eigenvalues --   -1.40342  -1.39717  -1.38434  -1.26249  -1.24064
 Alpha  occ. eigenvalues --   -1.23481  -1.22931  -1.10061  -1.08815  -1.05809
 Alpha  occ. eigenvalues --   -1.03140  -1.01147  -0.99143  -0.98822  -0.95167
 Alpha  occ. eigenvalues --   -0.94885  -0.91959  -0.90944  -0.89006  -0.86192
 Alpha  occ. eigenvalues --   -0.83954  -0.80507  -0.79618  -0.79490  -0.78443
 Alpha  occ. eigenvalues --   -0.77208  -0.74855  -0.72375  -0.71750  -0.70021
 Alpha  occ. eigenvalues --   -0.69098  -0.68037  -0.66957  -0.65127  -0.64846
 Alpha  occ. eigenvalues --   -0.64204  -0.63497  -0.63031  -0.61949  -0.61699
 Alpha  occ. eigenvalues --   -0.61287  -0.60618  -0.60119  -0.59555  -0.59354
 Alpha  occ. eigenvalues --   -0.58935  -0.58148  -0.57802  -0.56664  -0.56232
 Alpha  occ. eigenvalues --   -0.55758  -0.55478  -0.54997  -0.54108  -0.54003
 Alpha  occ. eigenvalues --   -0.53490  -0.53241  -0.52797  -0.51903  -0.51428
 Alpha  occ. eigenvalues --   -0.51190  -0.51011  -0.50087  -0.48890  -0.47855
 Alpha  occ. eigenvalues --   -0.47427  -0.46487  -0.44677  -0.43441  -0.42700
 Alpha  occ. eigenvalues --   -0.41905  -0.41319  -0.40225  -0.39169  -0.38630
 Alpha  occ. eigenvalues --   -0.33427  -0.27495  -0.09805
 Alpha virt. eigenvalues --    0.14526   0.17807   0.18873   0.19131   0.20009
 Alpha virt. eigenvalues --    0.20373   0.21226   0.21878   0.23252   0.23715
 Alpha virt. eigenvalues --    0.24756   0.25720   0.26074   0.26604   0.27064

 Mulliken atomic charges:
              1
     1  C   -0.631888
     2  N   -0.822600
     3  C    0.813963
     4  O   -0.577923
     5  C    0.115609
     6  C   -0.473945
     7  C   -0.343425
     8  C   -0.309191
     9  C   -0.358593
    10  C   -0.229863
    11  C   -0.037167
    12  C   -0.678201
    13  C   -0.335813
    14  C   -0.342021
    15  C    0.088783
    16  C   -0.512039
    17  N   -0.787007
    18  C    0.767120
    19  C   -0.596482
    20  O   -0.613246
    21  C    0.821851
    22  O   -0.641244
    23  N   -0.804027
    24  C   -0.275848
    25  N   -0.838052
    26  C    0.752468
    27  C   -0.589192
    28  O   -0.590697
    29  H    0.231195
    30  H    0.406267
    31  H    0.139885
    32  H    0.342360
    33  H    0.202178
    34  H    0.150556
    35  H    0.213922
    36  H    0.168490
    37  H    0.171535
    38  H    0.160809
    39  H    0.179742
    40  H    0.173579
    41  H    0.144785
    42  H    0.135035
    43  H    0.167897
    44  H    0.450413
    45  H    0.288995
    46  H    0.177489
    47  H    0.234358
    48  H    0.192134
    49  H    0.203812
    50  H    0.187390
    51  H    0.152434
    52  H    0.228856
    53  H    0.392912
    54  H    0.211733
    55  H    0.208121
    56  H    0.180791
    57  H    0.397209
    58  H    0.167230
    59  H    0.198673
    60  H    0.185223
    61  H    0.383788
    62  H    0.220848
    63  H    0.178674
    64  H    0.199352
 Sum of Mulliken atomic charges =   0.00000

 Dipole moment (field-independent basis, Debye):
    X=              4.1131    Y=             -0.3805    Z=             -2.7423  Tot=              4.9581
 Quadrupole moment (field-independent basis, Debye-Ang):
   XX=           -167.3557   YY=           -169.3391   ZZ=           -174.8882
   XY=             10.8889   XZ=            -29.3703   YZ=             -7.7377

 Normal termination of Gaussian 09 at Thu Dec  5 18:23:03 2019.
