 Gaussian 09, Revision A.02,
 Gaussian 09:  EM64L-G09RevA.02 11-Jun-2009

 ---------------------------------
 #SP HF/6-31G* Geom=(ModRedundant)
 ---------------------------------

 ------------
 paramfit run
 ------------
 Symbolic Z-matrix:
 Charge =  0 Multiplicity = 1

                         Standard orientation:
 ---------------------------------------------------------------------
 Center     Atomic      Atomic             Coordinates (Angstroms)
 Number     Number       Type             X           Y           Z
 ---------------------------------------------------------------------
      1          6    20001001        0.781814    0.988761    1.127766
      2          7    20001014        1.895608    0.671886    0.258112
      3          6    20001002        2.850491   -0.193425    0.672292
      4          8    20001024        2.713955   -0.890791    1.639134
      5          6    90000001        4.079776   -0.343954   -0.241811
      6          6    90000002        5.236385   -0.961344    0.551238
      7          6    90000002        3.719856   -1.203585   -1.484025
      8          6    90000002        3.242842   -2.652454   -1.276969
      9          6    90000002        1.756231   -2.873859   -0.934034
     10          6    20001004        1.368382   -2.407220    0.449475
     11          6    20001004        0.789686   -1.264799    0.782259
     12          6    90000002        0.374365   -0.143311   -0.139439
     13          6    90000002       -1.134630   -0.095942   -0.439862
     14          6    90000002       -1.983360    0.114252    0.821244
     15          6    90000002       -3.504296    0.358491    0.643063
     16          6    90000002       -4.123825    0.474253    2.045288
     17          7    20001014       -3.691880    1.611711   -0.075118
     18          6    20001002       -4.925324    2.011725   -0.501332
     19          6    20001001       -4.915774    3.109600   -1.540267
     20          8    20001024       -5.944368    1.533099   -0.087075
     21          6    20001002       -4.088365   -0.784756   -0.217504
     22          8    20001024       -4.019885   -0.736625   -1.416221
     23          7    20001014       -4.574700   -1.865270    0.430528
     24          6    20001001       -5.182594   -2.949609   -0.313028
     25          7    20001014        4.471636    0.961345   -0.793239
     26          6    20001002        4.840020    2.027119   -0.026368
     27          6    20001001        5.539279    3.144677   -0.772170
     28          8    20001024        4.617747    2.084810    1.149815
     29          1    20001035        1.101607    1.526528    2.012915
     30          1    20001035        0.290592    0.078223    1.438162
     31          1    20001035        0.075615    1.597411    0.577147
     32          1    20001029        2.177787    1.366597   -0.393069
     33          1    20001034        4.953779   -1.910894    0.979514
     34          1    20001034        6.087591   -1.108414   -0.106833
     35          1    20001034        5.526871   -0.309446    1.362147
     36          1    20001034        4.627168   -1.247906   -2.082390
     37          1    20001034        2.990257   -0.661887   -2.077767
     38          1    20001034        3.444722   -3.178114   -2.205701
     39          1    20001034        3.848494   -3.137656   -0.518590
     40          1    20001034        1.503199   -3.920991   -1.038214
     41          1    20001034        1.173420   -2.349306   -1.683039
     42          1    20001033        1.592025   -3.098245    1.246081
     43          1    20001033        0.581318   -1.104086    1.828449
     44          1    20001034        0.905470   -0.214253   -1.080906
     45          1    20001034        0.676534    0.802545    0.308495
     46          1    20001034       -1.303918    0.702401   -1.157054
     47          1    20001034       -1.428922   -1.010583   -0.937510
     48          1    20001034       -1.596656    0.964402    1.379133
     49          1    20001034       -1.872890   -0.753138    1.461385
     50          1    20001034       -3.726950    1.359789    2.527881
     51          1    20001034       -3.860352   -0.378045    2.662986
     52          1    20001034       -5.198455    0.568350    1.999960
     53          1    20001029       -2.940605    1.876705   -0.670160
     54          1    20001034       -5.874417    3.605646   -1.538920
     55          1    20001034       -4.757175    2.660853   -2.516277
     56          1    20001034       -4.126933    3.832570   -1.362993
     57          1    20001029       -4.831877   -1.768306    1.384346
     58          1    20001035       -5.393920   -3.761398    0.370537
     59          1    20001035       -4.499598   -3.298230   -1.073691
     60          1    20001035       -6.104130   -2.640131   -0.795468
     61          1    20001029        4.818949    0.946516   -1.726353
     62          1    20001034        5.437987    4.059101   -0.206005
     63          1    20001034        5.138700    3.286049   -1.769717
     64          1    20001034        6.594720    2.907975   -0.860587
 ---------------------------------------------------------------------

 SCF Done:  E(RHF) =  -1294.77023872     A.U. after   17 cycles

 The electronic state is 1-A.
 Alpha  occ. eigenvalues --  -20.53716 -20.51929 -20.51296 -20.50730 -15.59949
 Alpha  occ. eigenvalues --  -15.58676 -15.57622 -15.57376 -11.36085 -11.34151
 Alpha  occ. eigenvalues --  -11.33862 -11.33355 -11.29440 -11.28464 -11.28173
 Alpha  occ. eigenvalues --  -11.24825 -11.24639 -11.24535 -11.22938 -11.22918
 Alpha  occ. eigenvalues --  -11.22525 -11.21851 -11.21434 -11.21196 -11.20514
 Alpha  occ. eigenvalues --  -11.20155 -11.19686 -11.18434  -1.44352  -1.40535
 Alpha  occ. eigenvalues --   -1.39164  -1.37863  -1.36946  -1.25583  -1.23355
 Alpha  occ. eigenvalues --   -1.22344  -1.14645  -1.10278  -1.07737  -1.06233
 Alpha  occ. eigenvalues --   -1.03032  -1.00953  -0.99409  -0.98550  -0.95370
 Alpha  occ. eigenvalues --   -0.94521  -0.91375  -0.88488  -0.87247  -0.85955
 Alpha  occ. eigenvalues --   -0.81726  -0.81451  -0.79274  -0.79038  -0.76650
 Alpha  occ. eigenvalues --   -0.75862  -0.73088  -0.71347  -0.70466  -0.69750
 Alpha  occ. eigenvalues --   -0.68041  -0.67581  -0.66671  -0.64808  -0.64153
 Alpha  occ. eigenvalues --   -0.63796  -0.63157  -0.62874  -0.61578  -0.61366
 Alpha  occ. eigenvalues --   -0.60760  -0.60444  -0.59800  -0.59113  -0.58684
 Alpha  occ. eigenvalues --   -0.58511  -0.58154  -0.57581  -0.57408  -0.55951
 Alpha  occ. eigenvalues --   -0.55632  -0.55042  -0.54731  -0.54126  -0.53631
 Alpha  occ. eigenvalues --   -0.52857  -0.52512  -0.51830  -0.51456  -0.50828
 Alpha  occ. eigenvalues --   -0.50468  -0.50237  -0.49657  -0.48988  -0.47937
 Alpha  occ. eigenvalues --   -0.47037  -0.46841  -0.45365  -0.42895  -0.42593
 Alpha  occ. eigenvalues --   -0.41323  -0.40949  -0.39535  -0.38628  -0.38054
 Alpha  occ. eigenvalues --   -0.37090  -0.29358  -0.22473
 Alpha virt. eigenvalues --    0.16944   0.17954   0.18640   0.19339   0.19974
 Alpha virt. eigenvalues --    0.20463   0.21799   0.22551   0.23596   0.24223
 Alpha virt. eigenvalues --    0.24465   0.26094   0.26482   0.26852   0.27284

 Mulliken atomic charges:
              1
     1  C   -0.289341
     2  N   -0.872635
     3  C    0.839592
     4  O   -0.620068
     5  C    0.109113
     6  C   -0.469648
     7  C   -0.337205
     8  C   -0.316222
     9  C   -0.351116
    10  C   -0.165381
    11  C   -0.257341
    12  C   -0.346104
    13  C   -0.321328
    14  C   -0.376766
    15  C    0.103494
    16  C   -0.510099
    17  N   -0.789271
    18  C    0.768768
    19  C   -0.595547
    20  O   -0.613600
    21  C    0.822646
    22  O   -0.641269
    23  N   -0.805855
    24  C   -0.274544
    25  N   -0.846923
    26  C    0.741498
    27  C   -0.588405
    28  O   -0.583070
    29  H    0.093650
    30  H    0.222524
    31  H    0.198798
    32  H    0.422716
    33  H    0.197143
    34  H    0.144936
    35  H    0.215478
    36  H    0.166576
    37  H    0.170917
    38  H    0.165495
    39  H    0.176826
    40  H    0.174292
    41  H    0.173056
    42  H    0.178626
    43  H    0.247737
    44  H    0.155708
    45  H    0.305185
    46  H    0.131589
    47  H    0.206884
    48  H    0.188134
    49  H    0.190881
    50  H    0.183883
    51  H    0.149847
    52  H    0.224886
    53  H    0.386363
    54  H    0.211338
    55  H    0.208020
    56  H    0.174383
    57  H    0.395664
    58  H    0.164702
    59  H    0.197633
    60  H    0.183567
    61  H    0.382424
    62  H    0.219698
    63  H    0.175138
    64  H    0.201932
 Sum of Mulliken atomic charges =   0.00000

 Dipole moment (field-independent basis, Debye):
    X=              4.3837    Y=              1.0004    Z=             -4.1059  Tot=              6.0890
 Quadrupole moment (field-independent basis, Debye-Ang):
   XX=           -182.5308   YY=           -159.7528   ZZ=           -177.0993
   XY=              9.4524   XZ=            -34.0065   YZ=            -13.2337

 Normal termination of Gaussian 09 at Thu Dec  5 18:32:11 2019.
