 Gaussian 09, Revision A.02,
 Gaussian 09:  EM64L-G09RevA.02 11-Jun-2009

 ---------------------------------
 #SP HF/6-31G* Geom=(ModRedundant)
 ---------------------------------

 ------------
 paramfit run
 ------------
 Symbolic Z-matrix:
 Charge =  0 Multiplicity = 1

                         Standard orientation:
 ---------------------------------------------------------------------
 Center     Atomic      Atomic             Coordinates (Angstroms)
 Number     Number       Type             X           Y           Z
 ---------------------------------------------------------------------
      1          6    20001001       -1.500140   -0.669793    1.989698
      2          7    20001014       -2.353360   -0.549875    0.825705
      3          6    20001002       -3.288894    0.426870    0.772270
      4          8    20001024       -3.307082    1.345945    1.543448
      5          6    90000001       -4.260125    0.378848   -0.420957
      6          6    90000002       -5.500547    1.221890   -0.107151
      7          6    90000002       -3.548247    0.873137   -1.709565
      8          6    90000002       -2.992566    2.308067   -1.752343
      9          6    90000002       -1.607233    2.557570   -1.123661
     10          6    20001004       -1.373247    1.806709    0.166197
     11          6    20001004       -0.720932    0.667043    0.328689
     12          6    90000002       -0.049265   -0.166306   -0.736275
     13          6    90000002        1.482622   -0.021929   -0.781477
     14          6    90000002        2.157622   -0.459144    0.525477
     15          6    90000002        3.706231   -0.533527    0.555825
     16          6    90000002        4.124594   -0.930977    1.980766
     17          7    20001014        4.139771   -1.560792   -0.381353
     18          6    20001002        5.459940   -1.749475   -0.672233
     19          6    20001001        5.728430   -2.565437   -1.915986
     20          8    20001024        6.345740   -1.304736    0.003568
     21          6    20001002        4.273063    0.824118    0.082296
     22          8    20001024        4.385536    1.057756   -1.091029
     23          7    20001014        4.531878    1.753904    1.027015
     24          6    20001001        5.111923    3.028519    0.656735
     25          7    20001014       -4.641782   -1.009961   -0.715883
     26          6    20001002       -5.274645   -1.826270    0.174507
     27          6    20001001       -5.892388   -3.073352   -0.423237
     28          8    20001024       -5.329791   -1.584602    1.346981
     29          1    20001035       -2.061571   -0.947580    2.874333
     30          1    20001035       -1.005949    0.271929    2.178536
     31          1    20001035       -0.750171   -1.425362    1.792174
     32          1    20001029       -2.547251   -1.379243    0.314981
     33          1    20001034       -5.231404    2.239321    0.132282
     34          1    20001034       -6.163271    1.223461   -0.967402
     35          1    20001034       -6.027854    0.813642    0.742677
     36          1    20001034       -4.288740    0.793053   -2.502330
     37          1    20001034       -2.759411    0.170151   -1.958218
     38          1    20001034       -2.928232    2.581519   -2.801487
     39          1    20001034       -3.703796    2.994831   -1.305262
     40          1    20001034       -1.464493    3.615924   -0.947947
     41          1    20001034       -0.865082    2.274083   -1.861686
     42          1    20001033       -1.788636    2.268241    1.047421
     43          1    20001033       -0.649645    0.278583    1.332571
     44          1    20001034       -0.442518    0.084929   -1.713874
     45          1    20001034       -0.301949   -1.212392   -0.567607
     46          1    20001034        1.845464   -0.610541   -1.619485
     47          1    20001034        1.738398    1.005167   -1.006162
     48          1    20001034        1.794832   -1.445431    0.806825
     49          1    20001034        1.855791    0.219290    1.314764
     50          1    20001034        3.766842   -1.934378    2.180220
     51          1    20001034        3.677427   -0.273835    2.719405
     52          1    20001034        5.197999   -0.926768    2.097050
     53          1    20001029        3.518662   -1.734601   -1.138139
     54          1    20001034        6.727542   -2.970560   -1.863906
     55          1    20001034        5.662558   -1.910964   -2.779961
     56          1    20001034        5.011109   -3.369545   -2.039453
     57          1    20001029        4.657180    1.452999    1.964599
     58          1    20001035        5.126409    3.668085    1.529470
     59          1    20001035        4.511051    3.493525   -0.110954
     60          1    20001035        6.123314    2.916348    0.279560
     61          1    20001029       -4.766776   -1.225428   -1.679988
     62          1    20001034       -6.010067   -3.812497    0.355731
     63          1    20001034       -5.292877   -3.483042   -1.228402
     64          1    20001034       -6.872838   -2.830113   -0.819917
 ---------------------------------------------------------------------

 SCF Done:  E(RHF) =  -1295.39084612     A.U. after   15 cycles

 The electronic state is 1-A.
 Alpha  occ. eigenvalues --  -20.53861 -20.52998 -20.52088 -20.51530 -15.59884
 Alpha  occ. eigenvalues --  -15.57888 -15.57823 -15.57551 -11.36187 -11.34444
 Alpha  occ. eigenvalues --  -11.34301 -11.33629 -11.29343 -11.28556 -11.26463
 Alpha  occ. eigenvalues --  -11.24908 -11.24560 -11.24041 -11.23400 -11.22602
 Alpha  occ. eigenvalues --  -11.21982 -11.21921 -11.21823 -11.21719 -11.21100
 Alpha  occ. eigenvalues --  -11.20476 -11.17673 -11.16294  -1.41014  -1.40157
 Alpha  occ. eigenvalues --   -1.39362  -1.38071  -1.26207  -1.24493  -1.23566
 Alpha  occ. eigenvalues --   -1.22538  -1.09922  -1.09440  -1.07286  -1.03765
 Alpha  occ. eigenvalues --   -1.01910  -1.00094  -0.99074  -0.98294  -0.94912
 Alpha  occ. eigenvalues --   -0.94435  -0.92188  -0.87010  -0.85443  -0.83943
 Alpha  occ. eigenvalues --   -0.81654  -0.79503  -0.79356  -0.77399  -0.76837
 Alpha  occ. eigenvalues --   -0.73986  -0.71807  -0.71507  -0.69704  -0.68543
 Alpha  occ. eigenvalues --   -0.67944  -0.66886  -0.64728  -0.64160  -0.63658
 Alpha  occ. eigenvalues --   -0.63254  -0.62709  -0.61888  -0.61476  -0.61085
 Alpha  occ. eigenvalues --   -0.60579  -0.60003  -0.59844  -0.58869  -0.58567
 Alpha  occ. eigenvalues --   -0.58423  -0.57810  -0.57255  -0.56500  -0.56256
 Alpha  occ. eigenvalues --   -0.56007  -0.55202  -0.54921  -0.54679  -0.53468
 Alpha  occ. eigenvalues --   -0.52957  -0.52854  -0.52157  -0.51816  -0.51562
 Alpha  occ. eigenvalues --   -0.50214  -0.49875  -0.49179  -0.48460  -0.48271
 Alpha  occ. eigenvalues --   -0.47638  -0.45815  -0.45713  -0.43327  -0.42449
 Alpha  occ. eigenvalues --   -0.41481  -0.41095  -0.40073  -0.39763  -0.38858
 Alpha  occ. eigenvalues --   -0.38206  -0.37764  -0.28069
 Alpha virt. eigenvalues --    0.16647   0.18643   0.19329   0.19869   0.20926
 Alpha virt. eigenvalues --    0.21590   0.22655   0.23021   0.23507   0.24477
 Alpha virt. eigenvalues --    0.25220   0.26096   0.26617   0.26933   0.27658

 Mulliken atomic charges:
              1
     1  C   -0.346323
     2  N   -0.803778
     3  C    0.864727
     4  O   -0.619110
     5  C    0.108667
     6  C   -0.471932
     7  C   -0.336499
     8  C   -0.317931
     9  C   -0.326475
    10  C   -0.285279
    11  C   -0.157601
    12  C   -0.321286
    13  C   -0.303940
    14  C   -0.332550
    15  C    0.093985
    16  C   -0.509791
    17  N   -0.788642
    18  C    0.767556
    19  C   -0.595476
    20  O   -0.613609
    21  C    0.821772
    22  O   -0.639907
    23  N   -0.805129
    24  C   -0.275304
    25  N   -0.844188
    26  C    0.744249
    27  C   -0.588720
    28  O   -0.591073
    29  H    0.203542
    30  H    0.268405
    31  H    0.197593
    32  H    0.403143
    33  H    0.198589
    34  H    0.146722
    35  H    0.211951
    36  H    0.161991
    37  H    0.179279
    38  H    0.159962
    39  H    0.171776
    40  H    0.168694
    41  H    0.157542
    42  H    0.230844
    43  H    0.157966
    44  H    0.163487
    45  H    0.124144
    46  H    0.145241
    47  H    0.203020
    48  H    0.164485
    49  H    0.185948
    50  H    0.181650
    51  H    0.149115
    52  H    0.226978
    53  H    0.389467
    54  H    0.211243
    55  H    0.209305
    56  H    0.175203
    57  H    0.395410
    58  H    0.165630
    59  H    0.199514
    60  H    0.183987
    61  H    0.383723
    62  H    0.218737
    63  H    0.177119
    64  H    0.202183
 Sum of Mulliken atomic charges =   0.00000

 Dipole moment (field-independent basis, Debye):
    X=             -3.2642    Y=             -3.9157    Z=             -2.9815  Tot=              5.9057
 Quadrupole moment (field-independent basis, Debye-Ang):
   XX=           -195.8509   YY=           -162.4877   ZZ=           -169.1629
   XY=             12.2583   XZ=             31.7014   YZ=             10.1473

 Normal termination of Gaussian 09 at Thu Dec  5 17:21:16 2019.
