 Gaussian 09, Revision A.02,
 Gaussian 09:  EM64L-G09RevA.02 11-Jun-2009

 ---------------------------------
 #SP HF/6-31G* Geom=(ModRedundant)
 ---------------------------------

 ------------
 paramfit run
 ------------
 Symbolic Z-matrix:
 Charge =  0 Multiplicity = 1

                         Standard orientation:
 ---------------------------------------------------------------------
 Center     Atomic      Atomic             Coordinates (Angstroms)
 Number     Number       Type             X           Y           Z
 ---------------------------------------------------------------------
      1          6    20001001       -3.699745    2.847290    0.663120
      2          7    20001014       -4.049856    1.442874    0.615318
      3          6    20001002       -4.308292    0.851750   -0.574594
      4          8    20001024       -4.047260    1.372023   -1.623844
      5          6    90000001       -4.833878   -0.593990   -0.519996
      6          6    90000002       -5.503236   -0.947266   -1.852286
      7          6    90000002       -3.673772   -1.572161   -0.189937
      8          6    90000002       -2.473864   -1.658988   -1.150312
      9          6    90000002       -1.363583   -0.599329   -1.005266
     10          6    20001004       -0.861406   -0.424694    0.408806
     11          6    20001004        0.223380   -0.954565    0.950316
     12          6    90000002        1.228164   -1.866693    0.288360
     13          6    90000002        2.537526   -1.171903   -0.126852
     14          6    90000002        3.294989   -0.573964    1.066309
     15          6    90000002        4.714016   -0.001345    0.815081
     16          6    90000002        5.220274    0.585218    2.142899
     17          7    20001014        5.587550   -1.091149    0.401805
     18          6    20001002        6.862788   -0.859801   -0.026332
     19          6    20001001        7.504381   -2.009407   -0.769010
     20          8    20001024        7.437569    0.174977    0.168614
     21          6    20001002        4.634192    1.020414   -0.341795
     22          8    20001024        4.668138    0.647048   -1.483450
     23          7    20001014        4.423764    2.314069   -0.015979
     24          6    20001001        4.389370    3.330096   -1.047826
     25          7    20001014       -5.782621   -0.753035    0.591770
     26          6    20001002       -6.942400   -0.044553    0.704187
     27          6    20001001       -7.937471   -0.594773    1.704792
     28          8    20001024       -7.157599    0.948349    0.068596
     29          1    20001035       -4.524627    3.479253    0.354669
     30          1    20001035       -2.859897    3.036461    0.010745
     31          1    20001035       -3.418496    3.099067    1.677940
     32          1    20001029       -4.504784    1.058957    1.410260
     33          1    20001034       -4.822640   -0.813705   -2.679259
     34          1    20001034       -5.832847   -1.981671   -1.827796
     35          1    20001034       -6.357872   -0.309488   -2.024807
     36          1    20001034       -4.125906   -2.560799   -0.152658
     37          1    20001034       -3.320934   -1.361135    0.814679
     38          1    20001034       -2.019200   -2.631702   -0.986834
     39          1    20001034       -2.820703   -1.657716   -2.178453
     40          1    20001034       -1.710847    0.355593   -1.377952
     41          1    20001034       -0.549916   -0.896979   -1.657326
     42          1    20001033       -1.465914    0.211423    1.034936
     43          1    20001033        0.428031   -0.712830    1.981550
     44          1    20001034        0.795209   -2.327624   -0.591163
     45          1    20001034        1.460692   -2.680738    0.973819
     46          1    20001034        3.149998   -1.904020   -0.645752
     47          1    20001034        2.317954   -0.399627   -0.852255
     48          1    20001034        3.398829   -1.328668    1.842951
     49          1    20001034        2.698837    0.226234    1.488966
     50          1    20001034        5.338794   -0.222208    2.856058
     51          1    20001034        4.504996    1.285761    2.561225
     52          1    20001034        6.176123    1.073177    2.024638
     53          1    20001029        5.132170   -1.855055   -0.042929
     54          1    20001034        8.577326   -1.896432   -0.736049
     55          1    20001034        7.182154   -1.974528   -1.805387
     56          1    20001034        7.222586   -2.971252   -0.354491
     57          1    20001029        4.640030    2.610442    0.906356
     58          1    20001035        4.091145    4.268435   -0.598935
     59          1    20001035        3.669020    3.056969   -1.804876
     60          1    20001035        5.356823    3.453618   -1.523779
     61          1    20001029       -5.754404   -1.632532    1.057856
     62          1    20001034       -8.606029    0.198914    2.004898
     63          1    20001034       -7.451754   -1.013738    2.578919
     64          1    20001034       -8.521194   -1.378372    1.232519
 ---------------------------------------------------------------------

 SCF Done:  E(RHF) =  -1295.62174993     A.U. after   14 cycles

 The electronic state is 1-A.
 Alpha  occ. eigenvalues --  -20.53659 -20.52049 -20.51886 -20.51584 -15.59613
 Alpha  occ. eigenvalues --  -15.57888 -15.57568 -15.57523 -11.35976 -11.34257
 Alpha  occ. eigenvalues --  -11.33889 -11.33671 -11.29024 -11.28563 -11.24964
 Alpha  occ. eigenvalues --  -11.24942 -11.24367 -11.23963 -11.23393 -11.22698
 Alpha  occ. eigenvalues --  -11.22547 -11.22521 -11.22347 -11.22182 -11.21955
 Alpha  occ. eigenvalues --  -11.21805 -11.21591 -11.20855  -1.40596  -1.39364
 Alpha  occ. eigenvalues --   -1.38733  -1.38086  -1.25440  -1.23548  -1.22601
 Alpha  occ. eigenvalues --   -1.22123  -1.10763  -1.09258  -1.07171  -1.04224
 Alpha  occ. eigenvalues --   -1.01213  -0.99325  -0.98738  -0.95556  -0.95116
 Alpha  occ. eigenvalues --   -0.94569  -0.92207  -0.87263  -0.85705  -0.82848
 Alpha  occ. eigenvalues --   -0.81346  -0.79491  -0.78754  -0.77216  -0.76868
 Alpha  occ. eigenvalues --   -0.71847  -0.71265  -0.71116  -0.68929  -0.67999
 Alpha  occ. eigenvalues --   -0.66743  -0.65860  -0.64562  -0.63939  -0.63707
 Alpha  occ. eigenvalues --   -0.62594  -0.62348  -0.61748  -0.61416  -0.61173
 Alpha  occ. eigenvalues --   -0.60925  -0.59941  -0.59348  -0.58710  -0.58469
 Alpha  occ. eigenvalues --   -0.58276  -0.57805  -0.56528  -0.56410  -0.56226
 Alpha  occ. eigenvalues --   -0.55545  -0.54873  -0.54751  -0.54589  -0.53886
 Alpha  occ. eigenvalues --   -0.53097  -0.52849  -0.52431  -0.52139  -0.51493
 Alpha  occ. eigenvalues --   -0.51048  -0.50288  -0.49768  -0.49325  -0.48541
 Alpha  occ. eigenvalues --   -0.48361  -0.46875  -0.46390  -0.44535  -0.42884
 Alpha  occ. eigenvalues --   -0.41953  -0.41500  -0.41063  -0.39299  -0.38832
 Alpha  occ. eigenvalues --   -0.38334  -0.38272  -0.34486
 Alpha virt. eigenvalues --    0.17359   0.18790   0.19655   0.19941   0.20209
 Alpha virt. eigenvalues --    0.21598   0.21981   0.23142   0.23189   0.23859
 Alpha virt. eigenvalues --    0.25394   0.25672   0.26530   0.27106   0.27694

 Mulliken atomic charges:
              1
     1  C   -0.279816
     2  N   -0.783657
     3  C    0.821732
     4  O   -0.627584
     5  C    0.102204
     6  C   -0.472651
     7  C   -0.335757
     8  C   -0.310259
     9  C   -0.374607
    10  C   -0.183082
    11  C   -0.178270
    12  C   -0.352953
    13  C   -0.310383
    14  C   -0.329056
    15  C    0.091031
    16  C   -0.509594
    17  N   -0.787621
    18  C    0.767305
    19  C   -0.595686
    20  O   -0.613844
    21  C    0.820637
    22  O   -0.639438
    23  N   -0.805916
    24  C   -0.275583
    25  N   -0.843140
    26  C    0.744563
    27  C   -0.588680
    28  O   -0.591881
    29  H    0.187304
    30  H    0.198357
    31  H    0.162079
    32  H    0.391611
    33  H    0.198773
    34  H    0.144188
    35  H    0.212404
    36  H    0.161280
    37  H    0.183852
    38  H    0.163718
    39  H    0.179758
    40  H    0.212987
    41  H    0.174633
    42  H    0.187398
    43  H    0.169121
    44  H    0.176355
    45  H    0.159789
    46  H    0.150871
    47  H    0.199407
    48  H    0.172988
    49  H    0.185188
    50  H    0.183421
    51  H    0.148392
    52  H    0.226636
    53  H    0.389744
    54  H    0.211180
    55  H    0.209462
    56  H    0.176221
    57  H    0.395296
    58  H    0.165008
    59  H    0.199753
    60  H    0.184920
    61  H    0.382694
    62  H    0.218583
    63  H    0.177219
    64  H    0.201399
 Sum of Mulliken atomic charges =   0.00000

 Dipole moment (field-independent basis, Debye):
    X=             -2.6773    Y=             -4.5791    Z=              6.1982  Tot=              8.1580
 Quadrupole moment (field-independent basis, Debye-Ang):
   XX=           -197.3541   YY=           -155.7866   ZZ=           -172.9156
   XY=             15.9054   XZ=            -16.8002   YZ=              8.8690

 Normal termination of Gaussian 09 at Thu Dec  5 18:16:38 2019.
