 Gaussian 09, Revision A.02,
 Gaussian 09:  EM64L-G09RevA.02 11-Jun-2009

 ---------------------------------
 #SP HF/6-31G* Geom=(ModRedundant)
 ---------------------------------

 ------------
 paramfit run
 ------------
 Symbolic Z-matrix:
 Charge =  0 Multiplicity = 1

                         Standard orientation:
 ---------------------------------------------------------------------
 Center     Atomic      Atomic             Coordinates (Angstroms)
 Number     Number       Type             X           Y           Z
 ---------------------------------------------------------------------
      1          6    20001001        2.471176   -2.243908    1.619649
      2          7    20001014        3.383189   -1.186676    1.235282
      3          6    20001002        3.316290   -0.656456   -0.008301
      4          8    20001024        2.392702   -0.858476   -0.747164
      5          6    90000001        4.426492    0.340132   -0.387314
      6          6    90000002        4.489306    0.482962   -1.911616
      7          6    90000002        4.174008    1.708734    0.301731
      8          6    90000002        2.876519    2.475152   -0.012535
      9          6    90000002        1.603177    2.071519    0.757087
     10          6    20001004        0.442974    3.020128    0.566436
     11          6    20001004       -0.580929    2.885522   -0.260764
     12          6    90000002       -0.842666    1.749733   -1.220571
     13          6    90000002       -1.906963    0.746697   -0.740200
     14          6    90000002       -3.282378    1.395477   -0.534687
     15          6    90000002       -4.485799    0.468219   -0.223860
     16          6    90000002       -5.716691    1.362456   -0.003186
     17          7    20001014       -4.714229   -0.396474   -1.373493
     18          6    20001002       -5.620275   -1.416395   -1.329907
     19          6    20001001       -5.478176   -2.442853   -2.430361
     20          8    20001024       -6.468323   -1.498494   -0.485385
     21          6    20001002       -4.121299   -0.421457    0.986239
     22          8    20001024       -3.486338   -1.429279    0.827968
     23          7    20001014       -4.452998    0.032124    2.214336
     24          6    20001001       -4.186285   -0.775302    3.386995
     25          7    20001014        5.722107   -0.109837    0.142156
     26          6    20001002        6.305249   -1.296458   -0.191833
     27          6    20001001        7.771799   -1.415733    0.167506
     28          8    20001024        5.702081   -2.187135   -0.720057
     29          1    20001035        2.647390   -3.153087    1.056362
     30          1    20001035        1.452641   -1.926939    1.449820
     31          1    20001035        2.603165   -2.447622    2.674842
     32          1    20001029        4.271014   -1.166226    1.679842
     33          1    20001034        3.537135    0.792332   -2.314846
     34          1    20001034        5.242135    1.220069   -2.174596
     35          1    20001034        4.747136   -0.461691   -2.367774
     36          1    20001034        5.002754    2.345635    0.000472
     37          1    20001034        4.267086    1.576064    1.375051
     38          1    20001034        3.074768    3.519437    0.210587
     39          1    20001034        2.666751    2.429080   -1.076137
     40          1    20001034        1.819855    1.985345    1.813964
     41          1    20001034        1.330849    1.075709    0.425372
     42          1    20001033        0.464672    3.901727    1.186457
     43          1    20001033       -1.323790    3.667767   -0.257156
     44          1    20001034        0.072776    1.204804   -1.416745
     45          1    20001034       -1.156316    2.169196   -2.175699
     46          1    20001034       -1.962570   -0.052800   -1.473743
     47          1    20001034       -1.573184    0.284340    0.179391
     48          1    20001034       -3.550330    1.962904   -1.423373
     49          1    20001034       -3.210941    2.108070    0.278613
     50          1    20001034       -5.951401    1.865506   -0.934010
     51          1    20001034       -5.517922    2.128630    0.739006
     52          1    20001034       -6.579739    0.786444    0.295308
     53          1    20001029       -3.913994   -0.575432   -1.935906
     54          1    20001034       -6.412762   -2.970792   -2.543892
     55          1    20001034       -4.709236   -3.153731   -2.143121
     56          1    20001034       -5.192918   -1.992100   -3.374729
     57          1    20001029       -5.166300    0.718477    2.288017
     58          1    20001035       -4.411268   -0.189301    4.268417
     59          1    20001035       -3.143480   -1.055975    3.407185
     60          1    20001035       -4.785182   -1.680269    3.397551
     61          1    20001029        6.334012    0.612482    0.450986
     62          1    20001034        8.031286   -2.462336    0.232800
     63          1    20001034        8.006617   -0.921768    1.103673
     64          1    20001034        8.368659   -0.959842   -0.615899
 ---------------------------------------------------------------------

 SCF Done:  E(RHF) =  -1295.62316409     A.U. after   14 cycles

 The electronic state is 1-A.
 Alpha  occ. eigenvalues --  -20.53586 -20.51779 -20.51579 -20.51164 -15.59569
 Alpha  occ. eigenvalues --  -15.57568 -15.57243 -15.56992 -11.35910 -11.33774
 Alpha  occ. eigenvalues --  -11.33767 -11.33251 -11.29020 -11.28050 -11.24810
 Alpha  occ. eigenvalues --  -11.24465 -11.24301 -11.24145 -11.22741 -11.22597
 Alpha  occ. eigenvalues --  -11.22014 -11.21876 -11.21703 -11.21502 -11.21456
 Alpha  occ. eigenvalues --  -11.21443 -11.21364 -11.20885  -1.40521  -1.38916
 Alpha  occ. eigenvalues --   -1.38621  -1.37648  -1.25379  -1.23030  -1.22275
 Alpha  occ. eigenvalues --   -1.21829  -1.10296  -1.08911  -1.06881  -1.03846
 Alpha  occ. eigenvalues --   -1.01053  -0.99136  -0.98309  -0.95228  -0.94905
 Alpha  occ. eigenvalues --   -0.94300  -0.91546  -0.87012  -0.85196  -0.82406
 Alpha  occ. eigenvalues --   -0.80862  -0.79039  -0.78695  -0.76960  -0.76459
 Alpha  occ. eigenvalues --   -0.71871  -0.71087  -0.70747  -0.69155  -0.67575
 Alpha  occ. eigenvalues --   -0.66450  -0.65426  -0.64251  -0.63698  -0.62986
 Alpha  occ. eigenvalues --   -0.62683  -0.62201  -0.61264  -0.60967  -0.60801
 Alpha  occ. eigenvalues --   -0.60487  -0.59587  -0.58868  -0.58516  -0.58242
 Alpha  occ. eigenvalues --   -0.57953  -0.57318  -0.56323  -0.55819  -0.55634
 Alpha  occ. eigenvalues --   -0.55112  -0.54697  -0.54351  -0.54144  -0.53477
 Alpha  occ. eigenvalues --   -0.52600  -0.52561  -0.52468  -0.52036  -0.51320
 Alpha  occ. eigenvalues --   -0.51002  -0.49910  -0.49360  -0.48765  -0.48277
 Alpha  occ. eigenvalues --   -0.47590  -0.46892  -0.45640  -0.44328  -0.42824
 Alpha  occ. eigenvalues --   -0.41839  -0.41034  -0.40593  -0.39206  -0.38417
 Alpha  occ. eigenvalues --   -0.38090  -0.37878  -0.34091
 Alpha virt. eigenvalues --    0.18075   0.18870   0.20088   0.20139   0.20187
 Alpha virt. eigenvalues --    0.22067   0.22455   0.23631   0.23902   0.24693
 Alpha virt. eigenvalues --    0.25359   0.25612   0.26534   0.26841   0.27832

 Mulliken atomic charges:
              1
     1  C   -0.281342
     2  N   -0.781781
     3  C    0.824155
     4  O   -0.631552
     5  C    0.101785
     6  C   -0.472176
     7  C   -0.331458
     8  C   -0.312628
     9  C   -0.370243
    10  C   -0.174647
    11  C   -0.170920
    12  C   -0.367230
    13  C   -0.309256
    14  C   -0.329275
    15  C    0.091626
    16  C   -0.509374
    17  N   -0.787896
    18  C    0.766979
    19  C   -0.595500
    20  O   -0.615684
    21  C    0.820104
    22  O   -0.637839
    23  N   -0.806274
    24  C   -0.274144
    25  N   -0.843041
    26  C    0.744826
    27  C   -0.588733
    28  O   -0.591232
    29  H    0.186290
    30  H    0.203464
    31  H    0.162473
    32  H    0.390433
    33  H    0.196802
    34  H    0.144343
    35  H    0.212850
    36  H    0.162347
    37  H    0.177282
    38  H    0.161192
    39  H    0.181467
    40  H    0.162978
    41  H    0.213852
    42  H    0.168541
    43  H    0.170312
    44  H    0.205088
    45  H    0.158419
    46  H    0.157718
    47  H    0.197810
    48  H    0.172838
    49  H    0.181751
    50  H    0.183606
    51  H    0.147290
    52  H    0.225235
    53  H    0.391734
    54  H    0.209376
    55  H    0.210822
    56  H    0.177153
    57  H    0.394999
    58  H    0.163128
    59  H    0.197159
    60  H    0.184631
    61  H    0.382195
    62  H    0.218983
    63  H    0.177254
    64  H    0.200934
 Sum of Mulliken atomic charges =   0.00000

 Dipole moment (field-independent basis, Debye):
    X=              5.5556    Y=              5.3237    Z=              2.7392  Tot=              8.1676
 Quadrupole moment (field-independent basis, Debye-Ang):
   XX=           -147.6712   YY=           -177.6270   ZZ=           -157.7679
   XY=             -1.6553   XZ=             13.7024   YZ=             -1.0035

 Normal termination of Gaussian 09 at Thu Dec  5 18:01:22 2019.
