 Gaussian 09, Revision A.02,
 Gaussian 09:  EM64L-G09RevA.02 11-Jun-2009

 ---------------------------------
 #SP HF/6-31G* Geom=(ModRedundant)
 ---------------------------------

 ------------
 paramfit run
 ------------
 Symbolic Z-matrix:
 Charge =  0 Multiplicity = 1

                         Standard orientation:
 ---------------------------------------------------------------------
 Center     Atomic      Atomic             Coordinates (Angstroms)
 Number     Number       Type             X           Y           Z
 ---------------------------------------------------------------------
      1          6    20001001        3.887700    2.985179   -0.291088
      2          7    20001014        4.289862    1.602846   -0.448148
      3          6    20001002        4.265584    0.767624    0.616711
      4          8    20001024        3.715604    1.049165    1.645303
      5          6    90000001        4.865632   -0.633323    0.400664
      6          6    90000002        5.188251   -1.268138    1.757413
      7          6    90000002        3.884534   -1.514079   -0.419895
      8          6    90000002        2.484658   -1.803742    0.151137
      9          6    90000002        1.392860   -0.735109   -0.055350
     10          6    20001004        0.596192   -0.907960   -1.327245
     11          6    20001004       -0.592276   -1.473392   -1.463582
     12          6    90000002       -1.446602   -2.087341   -0.380553
     13          6    90000002       -2.617389   -1.201215    0.081617
     14          6    90000002       -3.605341   -0.887375   -1.049918
     15          6    90000002       -4.921761   -0.153711   -0.684647
     16          6    90000002       -5.694535    0.092249   -1.990700
     17          7    20001014       -5.706556   -1.016008    0.188319
     18          6    20001002       -6.851262   -0.573817    0.785959
     19          6    20001001       -7.338767   -1.423631    1.937027
     20          8    20001024       -7.432274    0.413515    0.429951
     21          6    20001002       -4.567613    1.132211    0.096191
     22          8    20001024       -4.357994    1.084899    1.278456
     23          7    20001014       -4.405931    2.268125   -0.616227
     24          6    20001001       -4.123684    3.518535    0.058317
     25          7    20001014        6.075508   -0.550337   -0.430446
     26          6    20001002        7.184756    0.162866   -0.083194
     27          6    20001001        8.432104   -0.160222   -0.879345
     28          8    20001024        7.174812    0.994187    0.779908
     29          1    20001035        4.569806    3.533421    0.348531
     30          1    20001035        2.899343    3.030746    0.142266
     31          1    20001035        3.863476    3.451263   -1.268090
     32          1    20001029        4.954108    1.398932   -1.157712
     33          1    20001034        4.311699   -1.315031    2.385418
     34          1    20001034        5.569025   -2.273535    1.604359
     35          1    20001034        5.933691   -0.684879    2.278042
     36          1    20001034        4.384314   -2.472324   -0.543214
     37          1    20001034        3.790838   -1.089815   -1.414632
     38          1    20001034        2.141085   -2.716930   -0.326003
     39          1    20001034        2.554932   -2.025815    1.210910
     40          1    20001034        1.834119    0.253102   -0.045696
     41          1    20001034        0.736073   -0.777895    0.806413
     42          1    20001033        1.062008   -0.516283   -2.217031
     43          1    20001033       -1.013198   -1.502977   -2.456411
     44          1    20001034       -0.841088   -2.327737    0.484911
     45          1    20001034       -1.841620   -3.034225   -0.746566
     46          1    20001034       -3.116610   -1.713279    0.899506
     47          1    20001034       -2.227137   -0.282561    0.499480
     48          1    20001034       -3.893593   -1.812502   -1.544475
     49          1    20001034       -3.099419   -0.282683   -1.793381
     50          1    20001034       -5.984300   -0.865120   -2.407906
     51          1    20001034       -5.073633    0.592723   -2.726489
     52          1    20001034       -6.590251    0.670782   -1.821192
     53          1    20001029       -5.181254   -1.666255    0.726788
     54          1    20001034       -8.390035   -1.236053    2.094227
     55          1    20001034       -6.796047   -1.136931    2.832786
     56          1    20001034       -7.175828   -2.481419    1.761192
     57          1    20001029       -4.813073    2.321302   -1.519952
     58          1    20001035       -3.911109    4.273139   -0.687542
     59          1    20001035       -3.260704    3.401669    0.697249
     60          1    20001035       -4.960028    3.844917    0.668037
     61          1    20001029        6.216098   -1.308074   -1.061015
     62          1    20001034        9.110996    0.677973   -0.820113
     63          1    20001034        8.211037   -0.378934   -1.918019
     64          1    20001034        8.916667   -1.028864   -0.445222
 ---------------------------------------------------------------------

 SCF Done:  E(RHF) =  -1295.61825459     A.U. after   14 cycles

 The electronic state is 1-A.
 Alpha  occ. eigenvalues --  -20.53612 -20.51952 -20.51702 -20.51483 -15.59586
 Alpha  occ. eigenvalues --  -15.57810 -15.57422 -15.57335 -11.35937 -11.34159
 Alpha  occ. eigenvalues --  -11.33709 -11.33574 -11.29011 -11.28470 -11.24903
 Alpha  occ. eigenvalues --  -11.24769 -11.24335 -11.24122 -11.23297 -11.22574
 Alpha  occ. eigenvalues --  -11.22453 -11.22415 -11.22261 -11.22230 -11.22083
 Alpha  occ. eigenvalues --  -11.21721 -11.21606 -11.20831  -1.40543  -1.39265
 Alpha  occ. eigenvalues --   -1.38551  -1.37988  -1.25395  -1.23449  -1.22521
 Alpha  occ. eigenvalues --   -1.21937  -1.10694  -1.09217  -1.07183  -1.04172
 Alpha  occ. eigenvalues --   -1.01252  -0.99273  -0.98659  -0.95404  -0.95119
 Alpha  occ. eigenvalues --   -0.94522  -0.92038  -0.87216  -0.85618  -0.82709
 Alpha  occ. eigenvalues --   -0.81275  -0.79395  -0.78788  -0.77050  -0.76780
 Alpha  occ. eigenvalues --   -0.72109  -0.71293  -0.70972  -0.69061  -0.67900
 Alpha  occ. eigenvalues --   -0.66506  -0.65789  -0.64308  -0.64034  -0.63577
 Alpha  occ. eigenvalues --   -0.62555  -0.62236  -0.61784  -0.61336  -0.61004
 Alpha  occ. eigenvalues --   -0.60832  -0.59875  -0.59245  -0.58681  -0.58401
 Alpha  occ. eigenvalues --   -0.58068  -0.57624  -0.56861  -0.56261  -0.56088
 Alpha  occ. eigenvalues --   -0.55194  -0.54710  -0.54581  -0.54481  -0.54191
 Alpha  occ. eigenvalues --   -0.52978  -0.52621  -0.52577  -0.52092  -0.51671
 Alpha  occ. eigenvalues --   -0.51011  -0.50187  -0.49692  -0.48900  -0.48506
 Alpha  occ. eigenvalues --   -0.48036  -0.47222  -0.46306  -0.44506  -0.42812
 Alpha  occ. eigenvalues --   -0.41889  -0.41400  -0.40966  -0.39218  -0.38739
 Alpha  occ. eigenvalues --   -0.38187  -0.38181  -0.34493
 Alpha virt. eigenvalues --    0.17458   0.18843   0.19757   0.20139   0.20483
 Alpha virt. eigenvalues --    0.21698   0.22054   0.23334   0.23779   0.24382
 Alpha virt. eigenvalues --    0.24919   0.25564   0.26534   0.27036   0.27386

 Mulliken atomic charges:
              1
     1  C   -0.279420
     2  N   -0.783485
     3  C    0.817510
     4  O   -0.626556
     5  C    0.102650
     6  C   -0.472593
     7  C   -0.331376
     8  C   -0.318657
     9  C   -0.367184
    10  C   -0.171474
    11  C   -0.175826
    12  C   -0.353660
    13  C   -0.311079
    14  C   -0.329056
    15  C    0.091130
    16  C   -0.509546
    17  N   -0.787644
    18  C    0.767314
    19  C   -0.595711
    20  O   -0.614080
    21  C    0.820467
    22  O   -0.638596
    23  N   -0.806137
    24  C   -0.275621
    25  N   -0.843405
    26  C    0.744682
    27  C   -0.588663
    28  O   -0.591348
    29  H    0.186883
    30  H    0.198010
    31  H    0.162026
    32  H    0.390309
    33  H    0.199018
    34  H    0.143672
    35  H    0.212936
    36  H    0.161330
    37  H    0.176196
    38  H    0.171762
    39  H    0.181611
    40  H    0.203569
    41  H    0.183010
    42  H    0.169365
    43  H    0.170656
    44  H    0.177696
    45  H    0.160744
    46  H    0.151596
    47  H    0.200428
    48  H    0.173168
    49  H    0.184535
    50  H    0.183513
    51  H    0.148135
    52  H    0.226471
    53  H    0.389970
    54  H    0.210948
    55  H    0.209844
    56  H    0.176282
    57  H    0.395083
    58  H    0.164056
    59  H    0.200291
    60  H    0.185070
    61  H    0.382203
    62  H    0.218724
    63  H    0.177017
    64  H    0.201239
 Sum of Mulliken atomic charges =   0.00000

 Dipole moment (field-independent basis, Debye):
    X=              3.5213    Y=             -4.2392    Z=             -6.8958  Tot=              8.8273
 Quadrupole moment (field-independent basis, Debye-Ang):
   XX=           -177.8378   YY=           -158.4800   ZZ=           -173.4275
   XY=             -6.7585   XZ=            -20.1041   YZ=            -14.0632

 Normal termination of Gaussian 09 at Thu Dec  5 17:18:23 2019.
