 Gaussian 09, Revision A.02,
 Gaussian 09:  EM64L-G09RevA.02 11-Jun-2009

 ---------------------------------
 #SP HF/6-31G* Geom=(ModRedundant)
 ---------------------------------

 ------------
 paramfit run
 ------------
 Symbolic Z-matrix:
 Charge =  0 Multiplicity = 1

                         Standard orientation:
 ---------------------------------------------------------------------
 Center     Atomic      Atomic             Coordinates (Angstroms)
 Number     Number       Type             X           Y           Z
 ---------------------------------------------------------------------
      1          6    20001001       -0.812472    1.470987    0.921065
      2          7    20001014       -2.109491    0.827519    0.951655
      3          6    20001002       -2.596227    0.236376   -0.164476
      4          8    20001024       -1.915802    0.018650   -1.128510
      5          6    90000001       -4.046473   -0.274249   -0.090770
      6          6    90000002       -4.591979   -0.476299   -1.508318
      7          6    90000002       -4.109048   -1.588067    0.734802
      8          6    90000002       -3.317375   -2.814971    0.247361
      9          6    90000002       -1.819914   -2.888636    0.606277
     10          6    20001004       -0.919548   -3.183962   -0.570329
     11          6    20001004       -0.222834   -2.318965   -1.289444
     12          6    90000002       -0.156176   -0.820985   -1.112334
     13          6    90000002        1.124848   -0.321099   -0.420486
     14          6    90000002        2.396449   -0.668042   -1.206348
     15          6    90000002        3.741182   -0.071717   -0.715704
     16          6    90000002        4.851945   -0.617672   -1.627620
     17          7    20001014        3.679110    1.378062   -0.841484
     18          6    20001002        4.668423    2.179596   -0.349690
     19          6    20001001        4.297101    3.638217   -0.210585
     20          8    20001024        5.753193    1.765055   -0.048741
     21          6    20001002        3.917414   -0.420818    0.779553
     22          8    20001024        3.398422    0.256892    1.625299
     23          7    20001014        4.580672   -1.558564    1.078898
     24          6    20001001        4.825354   -1.918558    2.460468
     25          7    20001014       -4.886783    0.674229    0.654682
     26          6    20001002       -5.080646    1.970763    0.279064
     27          6    20001001       -6.239324    2.670599    0.958633
     28          8    20001024       -4.380235    2.523712   -0.520819
     29          1    20001035       -0.808845    2.340482    0.273827
     30          1    20001035       -0.067866    0.774529    0.564370
     31          1    20001035       -0.553729    1.775229    1.927466
     32          1    20001029       -2.778434    1.180095    1.595464
     33          1    20001034       -3.970920   -1.154619   -2.073208
     34          1    20001034       -5.598869   -0.879336   -1.453809
     35          1    20001034       -4.617513    0.464098   -2.039285
     36          1    20001034       -5.158935   -1.871919    0.754439
     37          1    20001034       -3.835681   -1.363114    1.760934
     38          1    20001034       -3.799976   -3.684987    0.683004
     39          1    20001034       -3.420731   -2.920062   -0.827649
     40          1    20001034       -1.658078   -3.636081    1.372109
     41          1    20001034       -1.551005   -1.938388    1.054107
     42          1    20001033       -0.843588   -4.224982   -0.839814
     43          1    20001033        0.373646   -2.715771   -2.095990
     44          1    20001034       -1.008127   -0.471622   -0.541729
     45          1    20001034       -0.235414   -0.352806   -2.092703
     46          1    20001034        1.032260    0.753527   -0.290182
     47          1    20001034        1.178807   -0.738335    0.576427
     48          1    20001034        2.278104   -0.354411   -2.241319
     49          1    20001034        2.511866   -1.745467   -1.219882
     50          1    20001034        4.696573   -0.236235   -2.630091
     51          1    20001034        4.817909   -1.700781   -1.683255
     52          1    20001034        5.830394   -0.304156   -1.295834
     53          1    20001029        2.766206    1.769542   -0.796093
     54          1    20001034        5.198555    4.231286   -0.183946
     55          1    20001034        3.764512    3.771754    0.726241
     56          1    20001034        3.658143    3.975757   -1.019399
     57          1    20001029        5.185054   -1.947487    0.394230
     58          1    20001035        5.256352   -2.910734    2.487837
     59          1    20001035        3.893494   -1.923992    3.006575
     60          1    20001035        5.502268   -1.221852    2.944353
     61          1    20001029       -5.598410    0.265869    1.218931
     62          1    20001034       -6.079994    3.737913    0.909357
     63          1    20001034       -6.353860    2.365419    1.992701
     64          1    20001034       -7.157573    2.433455    0.431013
 ---------------------------------------------------------------------

 SCF Done:  E(RHF) =  -1295.40733376     A.U. after   15 cycles

 The electronic state is 1-A.
 Alpha  occ. eigenvalues --  -20.54168 -20.53811 -20.51264 -20.50797 -15.60204
 Alpha  occ. eigenvalues --  -15.58859 -15.57166 -15.56532 -11.36474 -11.35050
 Alpha  occ. eigenvalues --  -11.33465 -11.32818 -11.29746 -11.27169 -11.24723
 Alpha  occ. eigenvalues --  -11.24531 -11.24473 -11.24296 -11.22477 -11.21927
 Alpha  occ. eigenvalues --  -11.21475 -11.21409 -11.21309 -11.20697 -11.20045
 Alpha  occ. eigenvalues --  -11.19794 -11.19632 -11.14833  -1.45009  -1.40989
 Alpha  occ. eigenvalues --   -1.38563  -1.37309  -1.26397  -1.23551  -1.22521
 Alpha  occ. eigenvalues --   -1.21882  -1.10121  -1.08448  -1.06384  -1.03215
 Alpha  occ. eigenvalues --   -1.00889  -0.99385  -0.98219  -0.96407  -0.94874
 Alpha  occ. eigenvalues --   -0.93973  -0.90863  -0.87982  -0.85261  -0.83417
 Alpha  occ. eigenvalues --   -0.81066  -0.79194  -0.78789  -0.78376  -0.76039
 Alpha  occ. eigenvalues --   -0.74974  -0.71280  -0.70602  -0.69419  -0.67575
 Alpha  occ. eigenvalues --   -0.67036  -0.66589  -0.64052  -0.63730  -0.63458
 Alpha  occ. eigenvalues --   -0.63015  -0.62679  -0.61752  -0.61054  -0.60965
 Alpha  occ. eigenvalues --   -0.60648  -0.60071  -0.59745  -0.58742  -0.58286
 Alpha  occ. eigenvalues --   -0.58077  -0.57640  -0.57107  -0.56527  -0.55457
 Alpha  occ. eigenvalues --   -0.55031  -0.54507  -0.54317  -0.54083  -0.53531
 Alpha  occ. eigenvalues --   -0.53404  -0.52452  -0.52000  -0.51407  -0.50458
 Alpha  occ. eigenvalues --   -0.49979  -0.49613  -0.48755  -0.48274  -0.47529
 Alpha  occ. eigenvalues --   -0.46991  -0.45877  -0.45213  -0.44050  -0.42862
 Alpha  occ. eigenvalues --   -0.40735  -0.40590  -0.40277  -0.39924  -0.38007
 Alpha  occ. eigenvalues --   -0.37428  -0.33421  -0.29117
 Alpha virt. eigenvalues --    0.17647   0.18489   0.19557   0.19782   0.20520
 Alpha virt. eigenvalues --    0.22484   0.22862   0.23806   0.24002   0.24227
 Alpha virt. eigenvalues --    0.25893   0.26361   0.26942   0.27414   0.28100

 Mulliken atomic charges:
              1
     1  C   -0.280201
     2  N   -0.781123
     3  C    0.811670
     4  O   -0.610411
     5  C    0.109160
     6  C   -0.475661
     7  C   -0.335139
     8  C   -0.315603
     9  C   -0.371113
    10  C   -0.199900
    11  C   -0.135293
    12  C   -0.316476
    13  C   -0.355851
    14  C   -0.310097
    15  C    0.089851
    16  C   -0.509562
    17  N   -0.789698
    18  C    0.767880
    19  C   -0.595695
    20  O   -0.616342
    21  C    0.824224
    22  O   -0.647591
    23  N   -0.805476
    24  C   -0.273356
    25  N   -0.843961
    26  C    0.744722
    27  C   -0.589115
    28  O   -0.592659
    29  H    0.175337
    30  H    0.199301
    31  H    0.180414
    32  H    0.399980
    33  H    0.200386
    34  H    0.149234
    35  H    0.211913
    36  H    0.161804
    37  H    0.179001
    38  H    0.164590
    39  H    0.188214
    40  H    0.172046
    41  H    0.181058
    42  H    0.160757
    43  H    0.154564
    44  H    0.231335
    45  H    0.153559
    46  H    0.143853
    47  H    0.186131
    48  H    0.172313
    49  H    0.177811
    50  H    0.183120
    51  H    0.147184
    52  H    0.221236
    53  H    0.393117
    54  H    0.209097
    55  H    0.204595
    56  H    0.177941
    57  H    0.395407
    58  H    0.163069
    59  H    0.195588
    60  H    0.182518
    61  H    0.385067
    62  H    0.219990
    63  H    0.178869
    64  H    0.202413
 Sum of Mulliken atomic charges =   0.00000

 Dipole moment (field-independent basis, Debye):
    X=             -6.9514    Y=             -1.6967    Z=              2.5503  Tot=              7.5964
 Quadrupole moment (field-independent basis, Debye-Ang):
   XX=           -154.4958   YY=           -165.3832   ZZ=           -173.1107
   XY=            -11.5796   XZ=            -21.1529   YZ=              1.5958

 Normal termination of Gaussian 09 at Thu Dec  5 17:36:16 2019.
