 Gaussian 09, Revision A.02,
 Gaussian 09:  EM64L-G09RevA.02 11-Jun-2009

 ---------------------------------
 #SP HF/6-31G* Geom=(ModRedundant)
 ---------------------------------

 ------------
 paramfit run
 ------------
 Symbolic Z-matrix:
 Charge =  0 Multiplicity = 1

                         Standard orientation:
 ---------------------------------------------------------------------
 Center     Atomic      Atomic             Coordinates (Angstroms)
 Number     Number       Type             X           Y           Z
 ---------------------------------------------------------------------
      1          6    20001001       -0.984401   -0.899685    1.443862
      2          7    20001014       -2.016194   -0.639869    0.461444
      3          6    20001002       -2.984870    0.268350    0.723957
      4          8    20001024       -2.914966    1.039829    1.640298
      5          6    90000001       -4.131327    0.360273   -0.299065
      6          6    90000002       -5.337130    1.054655    0.342585
      7          6    90000002       -3.653335    1.111881   -1.571154
      8          6    90000002       -3.166749    2.566481   -1.440737
      9          6    90000002       -1.709464    2.795719   -0.993066
     10          6    20001004       -1.386173    2.220661    0.366002
     11          6    20001004       -0.792125    1.069022    0.633572
     12          6    90000002       -0.290856    0.043174   -0.354416
     13          6    90000002        1.233450    0.061325   -0.568259
     14          6    90000002        2.015644   -0.235728    0.718149
     15          6    90000002        3.551049   -0.423962    0.609781
     16          6    90000002        4.093619   -0.645207    2.031090
     17          7    20001014        3.817630   -1.604623   -0.200469
     18          6    20001002        5.084984   -1.933864   -0.585789
     19          6    20001001        5.168159   -2.937023   -1.713423
     20          8    20001024        6.063679   -1.466815   -0.072794
     21          6    20001002        4.147154    0.804624   -0.114070
     22          8    20001024        4.148058    0.859249   -1.314464
     23          7    20001014        4.562403    1.836898    0.651413
     24          6    20001001        5.177493    2.997253    0.040315
     25          7    20001014       -4.501830   -0.980196   -0.775826
     26          6    20001002       -4.953060   -1.975600    0.039794
     27          6    20001001       -5.610133   -3.140721   -0.670746
     28          8    20001024       -4.829798   -1.940811    1.231320
     29          1    20001035       -1.386635   -1.359915    2.339042
     30          1    20001035       -0.502733    0.026570    1.720938
     31          1    20001035       -0.247224   -1.559938    1.004558
     32          1    20001029       -2.257218   -1.381287   -0.153774
     33          1    20001034       -5.072290    2.032018    0.716157
     34          1    20001034       -6.128070    1.158968   -0.394143
     35          1    20001034       -5.706269    0.474295    1.175559
     36          1    20001034       -4.507120    1.119343   -2.245109
     37          1    20001034       -2.887971    0.514565   -2.056656
     38          1    20001034       -3.280948    3.017844   -2.421985
     39          1    20001034       -3.823308    3.119212   -0.776816
     40          1    20001034       -1.483485    3.854159   -0.992346
     41          1    20001034       -1.069293    2.353655   -1.748443
     42          1    20001033       -1.675768    2.833689    1.204122
     43          1    20001033       -0.638346    0.823326    1.672680
     44          1    20001034       -0.769840    0.181977   -1.316067
     45          1    20001034       -0.588435   -0.945604   -0.007489
     46          1    20001034        1.467635   -0.666900   -1.339763
     47          1    20001034        1.526944    1.023141   -0.967763
     48          1    20001034        1.624528   -1.140960    1.177624
     49          1    20001034        1.842371    0.569493    1.422383
     50          1    20001034        3.697705   -1.579390    2.412055
     51          1    20001034        3.769399    0.142966    2.702689
     52          1    20001034        5.171491   -0.707069    2.041355
     53          1    20001029        3.109751   -1.836236   -0.859237
     54          1    20001034        6.140089   -3.406246   -1.697898
     55          1    20001034        5.051163   -2.409299   -2.655200
     56          1    20001034        4.393319   -3.692915   -1.645368
     57          1    20001029        4.768137    1.663993    1.606968
     58          1    20001035        5.324616    3.751677    0.801971
     59          1    20001035        4.528119    3.392907   -0.726756
     60          1    20001035        6.133962    2.754970   -0.411592
     61          1    20001029       -4.770583   -1.036428   -1.732987
     62          1    20001034       -5.573849   -4.007576   -0.027147
     63          1    20001034       -5.131432   -3.367483   -1.616777
     64          1    20001034       -6.649835   -2.898360   -0.865892
 ---------------------------------------------------------------------

 SCF Done:  E(RHF) =  -1295.17101591     A.U. after   15 cycles

 The electronic state is 1-A.
 Alpha  occ. eigenvalues --  -20.53757 -20.51925 -20.51301 -20.51010 -15.59898
 Alpha  occ. eigenvalues --  -15.57707 -15.57649 -15.57356 -11.36111 -11.34143
 Alpha  occ. eigenvalues --  -11.33922 -11.33396 -11.29373 -11.28281 -11.24828
 Alpha  occ. eigenvalues --  -11.24536 -11.24517 -11.23015 -11.22867 -11.22584
 Alpha  occ. eigenvalues --  -11.22495 -11.21780 -11.21537 -11.21133 -11.20604
 Alpha  occ. eigenvalues --  -11.19618 -11.19472 -11.19381  -1.40830  -1.39803
 Alpha  occ. eigenvalues --   -1.39169  -1.37869  -1.27835  -1.25275  -1.23352
 Alpha  occ. eigenvalues --   -1.22365  -1.11201  -1.10063  -1.07624  -1.04278
 Alpha  occ. eigenvalues --   -1.01316  -1.00324  -0.98973  -0.98685  -0.94761
 Alpha  occ. eigenvalues --   -0.94533  -0.93206  -0.87176  -0.87029  -0.85349
 Alpha  occ. eigenvalues --   -0.82014  -0.80408  -0.79266  -0.78272  -0.76652
 Alpha  occ. eigenvalues --   -0.74904  -0.71707  -0.71381  -0.70032  -0.68421
 Alpha  occ. eigenvalues --   -0.67738  -0.67086  -0.65619  -0.64414  -0.63902
 Alpha  occ. eigenvalues --   -0.63243  -0.63114  -0.61868  -0.61421  -0.61275
 Alpha  occ. eigenvalues --   -0.60932  -0.60192  -0.59411  -0.59182  -0.58363
 Alpha  occ. eigenvalues --   -0.58097  -0.57786  -0.57511  -0.57130  -0.55946
 Alpha  occ. eigenvalues --   -0.55329  -0.55078  -0.54741  -0.54072  -0.53715
 Alpha  occ. eigenvalues --   -0.52889  -0.52108  -0.51894  -0.51537  -0.51075
 Alpha  occ. eigenvalues --   -0.50527  -0.49731  -0.49045  -0.48775  -0.47717
 Alpha  occ. eigenvalues --   -0.46364  -0.45596  -0.43226  -0.42833  -0.42592
 Alpha  occ. eigenvalues --   -0.41365  -0.40897  -0.40554  -0.38634  -0.38312
 Alpha  occ. eigenvalues --   -0.37989  -0.34597  -0.29753
 Alpha virt. eigenvalues --    0.17919   0.18684   0.19021   0.19786   0.20113
 Alpha virt. eigenvalues --    0.21386   0.21826   0.22614   0.23495   0.24343
 Alpha virt. eigenvalues --    0.24734   0.25937   0.26545   0.27209   0.27399

 Mulliken atomic charges:
              1
     1  C   -0.399113
     2  N   -0.858009
     3  C    0.854724
     4  O   -0.629701
     5  C    0.104661
     6  C   -0.469809
     7  C   -0.337710
     8  C   -0.317522
     9  C   -0.348299
    10  C   -0.172185
    11  C   -0.237216
    12  C   -0.306279
    13  C   -0.290066
    14  C   -0.356367
    15  C    0.099899
    16  C   -0.510109
    17  N   -0.789259
    18  C    0.768042
    19  C   -0.595358
    20  O   -0.613933
    21  C    0.822743
    22  O   -0.640257
    23  N   -0.805752
    24  C   -0.274667
    25  N   -0.844820
    26  C    0.744541
    27  C   -0.588615
    28  O   -0.587444
    29  H    0.195676
    30  H    0.257696
    31  H    0.205028
    32  H    0.416451
    33  H    0.196649
    34  H    0.144810
    35  H    0.214234
    36  H    0.166736
    37  H    0.174882
    38  H    0.165143
    39  H    0.175870
    40  H    0.174995
    41  H    0.168962
    42  H    0.198970
    43  H    0.211012
    44  H    0.164437
    45  H    0.204320
    46  H    0.132975
    47  H    0.189869
    48  H    0.173030
    49  H    0.183292
    50  H    0.182990
    51  H    0.149440
    52  H    0.225566
    53  H    0.388711
    54  H    0.210961
    55  H    0.208612
    56  H    0.174657
    57  H    0.395432
    58  H    0.164750
    59  H    0.198138
    60  H    0.183674
    61  H    0.382522
    62  H    0.219404
    63  H    0.176283
    64  H    0.201704
 Sum of Mulliken atomic charges =   0.00000

 Dipole moment (field-independent basis, Debye):
    X=             -4.0974    Y=             -1.7105    Z=             -3.7223  Tot=              5.7940
 Quadrupole moment (field-independent basis, Debye-Ang):
   XX=           -187.4602   YY=           -159.7125   ZZ=           -174.0425
   XY=              9.7504   XZ=             34.1462   YZ=             12.0011

 Normal termination of Gaussian 09 at Thu Dec  5 17:05:31 2019.
