 Gaussian 09, Revision A.02,
 Gaussian 09:  EM64L-G09RevA.02 11-Jun-2009

 ---------------------------------
 #SP HF/6-31G* Geom=(ModRedundant)
 ---------------------------------

 ------------
 paramfit run
 ------------
 Symbolic Z-matrix:
 Charge =  0 Multiplicity = 1

                         Standard orientation:
 ---------------------------------------------------------------------
 Center     Atomic      Atomic             Coordinates (Angstroms)
 Number     Number       Type             X           Y           Z
 ---------------------------------------------------------------------
      1          6    20001001       -0.649009    1.386892    0.612671
      2          7    20001014       -1.962262    0.801230    0.784752
      3          6    20001002       -2.558911    0.165736   -0.250751
      4          8    20001024       -1.966922   -0.137148   -1.249529
      5          6    90000001       -4.016397   -0.278461   -0.032098
      6          6    90000002       -4.681480   -0.541331   -1.387238
      7          6    90000002       -4.060801   -1.537157    0.876371
      8          6    90000002       -3.356932   -2.822903    0.406197
      9          6    90000002       -1.839170   -2.937735    0.650835
     10          6    20001004       -1.024038   -3.103615   -0.610245
     11          6    20001004       -0.370304   -2.166028   -1.276817
     12          6    90000002       -0.278141   -0.696604   -0.942071
     13          6    90000002        1.051648   -0.277529   -0.289687
     14          6    90000002        2.263368   -0.538118   -1.194530
     15          6    90000002        3.643836   -0.001217   -0.735516
     16          6    90000002        4.684685   -0.445555   -1.776020
     17          7    20001014        3.586436    1.453703   -0.697515
     18          6    20001002        4.614263    2.194985   -0.190435
     19          6    20001001        4.266536    3.630114    0.132515
     20          8    20001024        5.713269    1.748311   -0.012087
     21          6    20001002        3.918686   -0.512443    0.696905
     22          8    20001024        3.464869    0.069221    1.645402
     23          7    20001014        4.590528   -1.677148    0.823675
     24          6    20001001        4.925798   -2.186837    2.137454
     25          7    20001014       -4.758219    0.746955    0.716002
     26          6    20001002       -4.933616    2.025869    0.276358
     27          6    20001001       -6.007061    2.812712    0.999346
     28          8    20001024       -4.279972    2.500535   -0.608843
     29          1    20001035       -0.665389    2.215498   -0.085967
     30          1    20001035        0.038143    0.639925    0.243099
     31          1    20001035       -0.298916    1.739269    1.574761
     32          1    20001029       -2.563635    1.219109    1.455582
     33          1    20001034       -4.133496   -1.277401   -1.955434
     34          1    20001034       -5.694923   -0.897921   -1.229077
     35          1    20001034       -4.714911    0.366116   -1.972344
     36          1    20001034       -5.115472   -1.775148    0.995745
     37          1    20001034       -3.697485   -1.263299    1.861908
     38          1    20001034       -3.834713   -3.644547    0.931786
     39          1    20001034       -3.550413   -2.987234   -0.648760
     40          1    20001034       -1.632141   -3.764894    1.317403
     41          1    20001034       -1.531691   -2.042731    1.180229
     42          1    20001033       -0.976102   -4.108919   -0.996482
     43          1    20001033        0.166039   -2.472897   -2.161085
     44          1    20001034       -1.085902   -0.410637   -0.279343
     45          1    20001034       -0.419959   -0.123627   -1.857592
     46          1    20001034        0.977913    0.776467   -0.036646
     47          1    20001034        1.169838   -0.801646    0.649548
     48          1    20001034        2.077405   -0.112711   -2.178390
     49          1    20001034        2.367834   -1.607735   -1.333660
     50          1    20001034        4.464618    0.043742   -2.717689
     51          1    20001034        4.637123   -1.515980   -1.947218
     52          1    20001034        5.686321   -0.171785   -1.480194
     53          1    20001029        2.682350    1.839219   -0.546793
     54          1    20001034        5.173034    4.215328    0.161612
     55          1    20001034        3.800454    3.660918    1.112793
     56          1    20001034        3.576872    4.055271   -0.588586
     57          1    20001029        5.143156   -1.989559    0.060582
     58          1    20001035        5.348659   -3.176679    2.026449
     59          1    20001035        4.033430   -2.250718    2.742620
     60          1    20001035        5.640479   -1.548413    2.646767
     61          1    20001029       -5.436675    0.402971    1.358591
     62          1    20001034       -5.812838    3.867610    0.871122
     63          1    20001034       -6.049096    2.574546    2.056256
     64          1    20001034       -6.972992    2.583295    0.561000
 ---------------------------------------------------------------------

 SCF Done:  E(RHF) =  -1295.25036798     A.U. after   16 cycles

 The electronic state is 1-A.
 Alpha  occ. eigenvalues --  -20.53962 -20.51879 -20.51418 -20.50907 -15.59979
 Alpha  occ. eigenvalues --  -15.58763 -15.57264 -15.56749 -11.36279 -11.34753
 Alpha  occ. eigenvalues --  -11.33624 -11.32931 -11.29499 -11.27353 -11.24601
 Alpha  occ. eigenvalues --  -11.24573 -11.24400 -11.22569 -11.22063 -11.21641
 Alpha  occ. eigenvalues --  -11.21574 -11.21508 -11.21233 -11.20825 -11.20519
 Alpha  occ. eigenvalues --  -11.20345 -11.19065 -11.16876  -1.44695  -1.40779
 Alpha  occ. eigenvalues --   -1.38699  -1.37435  -1.26143  -1.23442  -1.22714
 Alpha  occ. eigenvalues --   -1.21985  -1.10303  -1.10008  -1.06579  -1.04286
 Alpha  occ. eigenvalues --   -1.01651  -0.99477  -0.98474  -0.96270  -0.95220
 Alpha  occ. eigenvalues --   -0.94086  -0.90676  -0.89652  -0.85325  -0.83835
 Alpha  occ. eigenvalues --   -0.81312  -0.79758  -0.78977  -0.78711  -0.76186
 Alpha  occ. eigenvalues --   -0.74274  -0.71052  -0.70727  -0.69705  -0.68197
 Alpha  occ. eigenvalues --   -0.67912  -0.66254  -0.64537  -0.64313  -0.63538
 Alpha  occ. eigenvalues --   -0.63138  -0.62793  -0.62416  -0.61265  -0.60957
 Alpha  occ. eigenvalues --   -0.60843  -0.60275  -0.59645  -0.58565  -0.58322
 Alpha  occ. eigenvalues --   -0.57754  -0.57565  -0.57055  -0.56843  -0.55417
 Alpha  occ. eigenvalues --   -0.54956  -0.54513  -0.54366  -0.53873  -0.53402
 Alpha  occ. eigenvalues --   -0.53103  -0.52289  -0.51830  -0.51381  -0.50664
 Alpha  occ. eigenvalues --   -0.50155  -0.49558  -0.48695  -0.48241  -0.47658
 Alpha  occ. eigenvalues --   -0.46837  -0.44772  -0.43970  -0.43158  -0.42520
 Alpha  occ. eigenvalues --   -0.40772  -0.40467  -0.40195  -0.38375  -0.37716
 Alpha  occ. eigenvalues --   -0.37027  -0.34018  -0.29362
 Alpha virt. eigenvalues --    0.17211   0.18585   0.19492   0.19841   0.20374
 Alpha virt. eigenvalues --    0.22319   0.22516   0.23715   0.23882   0.24405
 Alpha virt. eigenvalues --    0.25774   0.26424   0.26905   0.27350   0.27990

 Mulliken atomic charges:
              1
     1  C   -0.229076
     2  N   -0.800251
     3  C    0.830249
     4  O   -0.630049
     5  C    0.112147
     6  C   -0.472895
     7  C   -0.335408
     8  C   -0.315473
     9  C   -0.374632
    10  C   -0.193253
    11  C   -0.118670
    12  C   -0.300655
    13  C   -0.363607
    14  C   -0.311847
    15  C    0.091477
    16  C   -0.509439
    17  N   -0.791290
    18  C    0.768729
    19  C   -0.596479
    20  O   -0.615479
    21  C    0.824128
    22  O   -0.646673
    23  N   -0.805716
    24  C   -0.273573
    25  N   -0.843921
    26  C    0.744903
    27  C   -0.588916
    28  O   -0.592364
    29  H    0.168108
    30  H    0.104169
    31  H    0.174395
    32  H    0.402704
    33  H    0.199887
    34  H    0.146481
    35  H    0.211317
    36  H    0.162184
    37  H    0.178886
    38  H    0.165114
    39  H    0.187449
    40  H    0.174879
    41  H    0.186291
    42  H    0.163868
    43  H    0.163084
    44  H    0.146228
    45  H    0.195346
    46  H    0.200399
    47  H    0.198157
    48  H    0.172634
    49  H    0.176918
    50  H    0.183286
    51  H    0.147752
    52  H    0.221583
    53  H    0.392912
    54  H    0.209904
    55  H    0.205086
    56  H    0.177592
    57  H    0.395507
    58  H    0.163288
    59  H    0.195944
    60  H    0.182817
    61  H    0.384005
    62  H    0.219507
    63  H    0.178557
    64  H    0.201797
 Sum of Mulliken atomic charges =   0.00000

 Dipole moment (field-independent basis, Debye):
    X=             -6.3581    Y=             -1.6271    Z=              2.4956  Tot=              7.0214
 Quadrupole moment (field-independent basis, Debye-Ang):
   XX=           -158.8245   YY=           -163.0507   ZZ=           -174.5471
   XY=            -11.5006   XZ=            -23.2921   YZ=              3.7167

 Normal termination of Gaussian 09 at Thu Dec  5 17:45:01 2019.
