 Gaussian 09, Revision A.02,
 Gaussian 09:  EM64L-G09RevA.02 11-Jun-2009

 ---------------------------------
 #SP HF/6-31G* Geom=(ModRedundant)
 ---------------------------------

 ------------
 paramfit run
 ------------
 Symbolic Z-matrix:
 Charge =  0 Multiplicity = 1

                         Standard orientation:
 ---------------------------------------------------------------------
 Center     Atomic      Atomic             Coordinates (Angstroms)
 Number     Number       Type             X           Y           Z
 ---------------------------------------------------------------------
      1          6    20001001       -1.027916    1.558702    1.191781
      2          7    20001014       -2.290132    0.855945    1.090840
      3          6    20001002       -2.664686    0.307040   -0.088364
      4          8    20001024       -1.906191    0.175320   -1.008734
      5          6    90000001       -4.089268   -0.272656   -0.150859
      6          6    90000002       -4.519866   -0.419188   -1.614059
      7          6    90000002       -4.146104   -1.632409    0.597102
      8          6    90000002       -3.261150   -2.792428    0.106339
      9          6    90000002       -1.791837   -2.817713    0.572299
     10          6    20001004       -0.814236   -3.239728   -0.499372
     11          6    20001004       -0.067701   -2.458154   -1.262643
     12          6    90000002       -0.009025   -0.949447   -1.251979
     13          6    90000002        1.223295   -0.368292   -0.535590
     14          6    90000002        2.544496   -0.795604   -1.188849
     15          6    90000002        3.854360   -0.141059   -0.678481
     16          6    90000002        5.023122   -0.781145   -1.445121
     17          7    20001014        3.805105    1.284888   -0.971359
     18          6    20001002        4.760876    2.141713   -0.507235
     19          6    20001001        4.385070    3.604871   -0.559578
     20          8    20001024        5.821443    1.769167   -0.088251
     21          6    20001002        3.927315   -0.318042    0.855168
     22          8    20001024        3.353827    0.448371    1.581563
     23          7    20001014        4.565414   -1.411396    1.325690
     24          6    20001001        4.714376   -1.611716    2.752534
     25          7    20001014       -5.027526    0.592906    0.578460
     26          6    20001002       -5.257888    1.898339    0.258382
     27          6    20001001       -6.496141    2.505081    0.885049
     28          8    20001024       -4.529709    2.526922   -0.456305
     29          1    20001035       -1.020630    2.462556    0.593497
     30          1    20001035       -0.225704    0.918208    0.855708
     31          1    20001035       -0.858253    1.817231    2.229438
     32          1    20001029       -3.020685    1.140734    1.700325
     33          1    20001034       -3.826533   -1.035499   -2.165768
     34          1    20001034       -5.506766   -0.870240   -1.656691
     35          1    20001034       -4.553581    0.547496   -2.095009
     36          1    20001034       -5.179234   -1.964588    0.522815
     37          1    20001034       -3.959359   -1.453404    1.651314
     38          1    20001034       -3.730194   -3.706759    0.457928
     39          1    20001034       -3.280960   -2.841365   -0.977444
     40          1    20001034       -1.684673   -3.473001    1.426978
     41          1    20001034       -1.551377   -1.821630    0.927024
     42          1    20001033       -0.723041   -4.304151   -0.643591
     43          1    20001033        0.581221   -2.940657   -1.976684
     44          1    20001034       -0.896881   -0.542005   -0.783826
     45          1    20001034       -0.019956   -0.595477   -2.282114
     46          1    20001034        1.125086    0.713709   -0.534270
     47          1    20001034        1.208024   -0.669899    0.503462
     48          1    20001034        2.497831   -0.601554   -2.258289
     49          1    20001034        2.657517   -1.867075   -1.072553
     50          1    20001034        4.937494   -0.516231   -2.492531
     51          1    20001034        4.989890   -1.863755   -1.380079
     52          1    20001034        5.977576   -0.427344   -1.085146
     53          1    20001029        2.892341    1.674512   -1.032735
     54          1    20001034        5.284290    4.201561   -0.538938
     55          1    20001034        3.790270    3.840835    0.317724
     56          1    20001034        3.803663    3.845691   -1.442955
     57          1    20001029        5.213936   -1.872252    0.732108
     58          1    20001035        5.139696   -2.592316    2.921198
     59          1    20001035        3.747461   -1.559953    3.231096
     60          1    20001035        5.358717   -0.861471    3.199426
     61          1    20001029       -5.756988    0.121301    1.065307
     62          1    20001034       -6.386934    3.579639    0.904345
     63          1    20001034       -6.670010    2.137181    1.890021
     64          1    20001034       -7.360799    2.256351    0.278171
 ---------------------------------------------------------------------

 SCF Done:  E(RHF) =  -1295.52163950     A.U. after   14 cycles

 The electronic state is 1-A.
 Alpha  occ. eigenvalues --  -20.54217 -20.53701 -20.51211 -20.50790 -15.60252
 Alpha  occ. eigenvalues --  -15.58679 -15.57176 -15.56468 -11.36516 -11.35337
 Alpha  occ. eigenvalues --  -11.33407 -11.32823 -11.29884 -11.27218 -11.25065
 Alpha  occ. eigenvalues --  -11.24751 -11.24587 -11.24548 -11.22524 -11.21836
 Alpha  occ. eigenvalues --  -11.21515 -11.21467 -11.21437 -11.20720 -11.20121
 Alpha  occ. eigenvalues --  -11.19836 -11.19822 -11.14987  -1.42918  -1.40990
 Alpha  occ. eigenvalues --   -1.38533  -1.37282  -1.26338  -1.23383  -1.22481
 Alpha  occ. eigenvalues --   -1.21887  -1.10174  -1.08068  -1.06353  -1.03101
 Alpha  occ. eigenvalues --   -1.00753  -0.99231  -0.98047  -0.96336  -0.94649
 Alpha  occ. eigenvalues --   -0.93950  -0.90751  -0.87345  -0.84737  -0.83371
 Alpha  occ. eigenvalues --   -0.80589  -0.79243  -0.78558  -0.78150  -0.76013
 Alpha  occ. eigenvalues --   -0.74254  -0.71287  -0.70572  -0.69430  -0.67753
 Alpha  occ. eigenvalues --   -0.66800  -0.66636  -0.63849  -0.63694  -0.63244
 Alpha  occ. eigenvalues --   -0.63092  -0.62667  -0.61283  -0.60924  -0.60753
 Alpha  occ. eigenvalues --   -0.60200  -0.59932  -0.59528  -0.58385  -0.58069
 Alpha  occ. eigenvalues --   -0.57860  -0.57652  -0.56945  -0.55941  -0.55099
 Alpha  occ. eigenvalues --   -0.55068  -0.54593  -0.54349  -0.54183  -0.53548
 Alpha  occ. eigenvalues --   -0.53245  -0.52429  -0.52285  -0.51524  -0.50364
 Alpha  occ. eigenvalues --   -0.50171  -0.49844  -0.48649  -0.48411  -0.47691
 Alpha  occ. eigenvalues --   -0.47020  -0.46182  -0.45335  -0.43873  -0.42972
 Alpha  occ. eigenvalues --   -0.40952  -0.40572  -0.40241  -0.40192  -0.38010
 Alpha  occ. eigenvalues --   -0.37433  -0.34548  -0.31702
 Alpha virt. eigenvalues --    0.17932   0.18523   0.19541   0.19775   0.20551
 Alpha virt. eigenvalues --    0.22513   0.23039   0.23827   0.23988   0.24341
 Alpha virt. eigenvalues --    0.25782   0.26264   0.26829   0.27339   0.28052

 Mulliken atomic charges:
              1
     1  C   -0.298948
     2  N   -0.775014
     3  C    0.816093
     4  O   -0.633043
     5  C    0.105204
     6  C   -0.475043
     7  C   -0.335097
     8  C   -0.315607
     9  C   -0.365691
    10  C   -0.198941
    11  C   -0.145551
    12  C   -0.364962
    13  C   -0.331072
    14  C   -0.315387
    15  C    0.089820
    16  C   -0.509418
    17  N   -0.788169
    18  C    0.767101
    19  C   -0.595149
    20  O   -0.616852
    21  C    0.823400
    22  O   -0.646445
    23  N   -0.805537
    24  C   -0.273243
    25  N   -0.843391
    26  C    0.744780
    27  C   -0.589201
    28  O   -0.592507
    29  H    0.182144
    30  H    0.219978
    31  H    0.178309
    32  H    0.397374
    33  H    0.201237
    34  H    0.149316
    35  H    0.212675
    36  H    0.163145
    37  H    0.179408
    38  H    0.164129
    39  H    0.189095
    40  H    0.169372
    41  H    0.180090
    42  H    0.160667
    43  H    0.154474
    44  H    0.298038
    45  H    0.140125
    46  H    0.140353
    47  H    0.176789
    48  H    0.173151
    49  H    0.178267
    50  H    0.183374
    51  H    0.146960
    52  H    0.221601
    53  H    0.392395
    54  H    0.208516
    55  H    0.205223
    56  H    0.178487
    57  H    0.395335
    58  H    0.162997
    59  H    0.195314
    60  H    0.182662
    61  H    0.385208
    62  H    0.220263
    63  H    0.178854
    64  H    0.202550
 Sum of Mulliken atomic charges =   0.00000

 Dipole moment (field-independent basis, Debye):
    X=             -7.1661    Y=             -2.2026    Z=              2.5767  Tot=              7.9274
 Quadrupole moment (field-independent basis, Debye-Ang):
   XX=           -150.5925   YY=           -167.2411   ZZ=           -171.2202
   XY=            -10.6619   XZ=            -19.4231   YZ=             -0.2435

 Normal termination of Gaussian 09 at Thu Dec  5 17:28:27 2019.
