 Gaussian 09, Revision A.02,
 Gaussian 09:  EM64L-G09RevA.02 11-Jun-2009

 ---------------------------------
 #SP HF/6-31G* Geom=(ModRedundant)
 ---------------------------------

 ------------
 paramfit run
 ------------
 Symbolic Z-matrix:
 Charge =  0 Multiplicity = 1

                         Standard orientation:
 ---------------------------------------------------------------------
 Center     Atomic      Atomic             Coordinates (Angstroms)
 Number     Number       Type             X           Y           Z
 ---------------------------------------------------------------------
      1          6    20001001        2.753395   -2.484813    1.392715
      2          7    20001014        3.583454   -1.335322    1.097897
      3          6    20001002        3.470665   -0.709984   -0.097235
      4          8    20001024        2.559960   -0.917089   -0.850542
      5          6    90000001        4.502840    0.393317   -0.391728
      6          6    90000002        4.546059    0.666468   -1.898831
      7          6    90000002        4.155119    1.677765    0.408825
      8          6    90000002        2.803276    2.370473    0.159198
      9          6    90000002        1.567386    1.812080    0.892280
     10          6    20001004        0.416177    2.785844    0.985982
     11          6    20001004       -0.654416    2.845533    0.210725
     12          6    90000002       -0.990086    1.954797   -0.961311
     13          6    90000002       -2.044476    0.875746   -0.655571
     14          6    90000002       -3.394079    1.469864   -0.230710
     15          6    90000002       -4.595368    0.503391   -0.064935
     16          6    90000002       -5.795303    1.332528    0.421005
     17          7    20001014       -4.903306   -0.080841   -1.363156
     18          6    20001002       -5.824292   -1.079513   -1.495427
     19          6    20001001       -5.762605   -1.834506   -2.803474
     20          8    20001024       -6.625494   -1.343694   -0.642534
     21          6    20001002       -4.180775   -0.636538    0.892875
     22          8    20001024       -3.574388   -1.586969    0.477058
     23          7    20001014       -4.435272   -0.467375    2.208396
     24          6    20001001       -4.118851   -1.518210    3.153820
     25          7    20001014        5.830967   -0.002900    0.098704
     26          6    20001002        6.497257   -1.111741   -0.332805
     27          6    20001001        7.970696   -1.152642    0.015655
     28          8    20001024        5.957662   -1.997275   -0.933477
     29          1    20001035        2.992232   -3.328700    0.755721
     30          1    20001035        1.713443   -2.230339    1.249660
     31          1    20001035        2.906136   -2.765236    2.427310
     32          1    20001029        4.470020   -1.286849    1.542798
     33          1    20001034        3.571471    0.937638   -2.275098
     34          1    20001034        5.241464    1.476057   -2.099372
     35          1    20001034        4.869516   -0.215590   -2.432006
     36          1    20001034        4.933331    2.396507    0.161811
     37          1    20001034        4.263970    1.463591    1.467391
     38          1    20001034        2.926019    3.404331    0.468534
     39          1    20001034        2.591164    2.397645   -0.904590
     40          1    20001034        1.840802    1.490388    1.888835
     41          1    20001034        1.258628    0.917296    0.363257
     42          1    20001033        0.488632    3.506224    1.784680
     43          1    20001033       -1.381292    3.611327    0.432020
     44          1    20001034       -0.097220    1.462410   -1.327109
     45          1    20001034       -1.348474    2.579103   -1.778864
     46          1    20001034       -2.155564    0.260978   -1.544444
     47          1    20001034       -1.668762    0.217471    0.116662
     48          1    20001034       -3.700414    2.223256   -0.953270
     49          1    20001034       -3.264371    1.981998    0.715464
     50          1    20001034       -6.071987    2.032417   -0.358856
     51          1    20001034       -5.541437    1.912074    1.302514
     52          1    20001034       -6.650971    0.709224    0.633284
     53          1    20001029       -4.139005   -0.133946   -1.996983
     54          1    20001034       -6.711685   -2.318361   -2.977228
     55          1    20001034       -4.992213   -2.595969   -2.727357
     56          1    20001034       -5.521935   -1.185500   -3.638490
     57          1    20001029       -5.130527    0.189114    2.474764
     58          1    20001035       -4.283616   -1.143021    4.155322
     59          1    20001035       -3.081919   -1.802178    3.050077
     60          1    20001035       -4.732919   -2.399190    2.997147
     61          1    20001029        6.390279    0.734172    0.466728
     62          1    20001034        8.306328   -2.179208   -0.006366
     63          1    20001034        8.174319   -0.722257    0.989748
     64          1    20001034        8.528025   -0.590747   -0.726949
 ---------------------------------------------------------------------

 SCF Done:  E(RHF) =  -1295.62210049     A.U. after   14 cycles

 The electronic state is 1-A.
 Alpha  occ. eigenvalues --  -20.53561 -20.51680 -20.51642 -20.51207 -15.59542
 Alpha  occ. eigenvalues --  -15.57605 -15.57199 -15.57071 -11.35886 -11.33839
 Alpha  occ. eigenvalues --  -11.33684 -11.33299 -11.28977 -11.28133 -11.24822
 Alpha  occ. eigenvalues --  -11.24474 -11.24286 -11.24125 -11.22865 -11.22592
 Alpha  occ. eigenvalues --  -11.22076 -11.21988 -11.21822 -11.21760 -11.21633
 Alpha  occ. eigenvalues --  -11.21458 -11.21432 -11.20855  -1.40492  -1.38970
 Alpha  occ. eigenvalues --   -1.38519  -1.37700  -1.25347  -1.23107  -1.22312
 Alpha  occ. eigenvalues --   -1.21785  -1.10369  -1.08977  -1.06946  -1.03914
 Alpha  occ. eigenvalues --   -1.01097  -0.99147  -0.98369  -0.95212  -0.94950
 Alpha  occ. eigenvalues --   -0.94339  -0.91637  -0.87029  -0.85280  -0.82428
 Alpha  occ. eigenvalues --   -0.80960  -0.79098  -0.78702  -0.76910  -0.76513
 Alpha  occ. eigenvalues --   -0.71979  -0.71082  -0.70797  -0.69153  -0.67646
 Alpha  occ. eigenvalues --   -0.66464  -0.65437  -0.64259  -0.63755  -0.63048
 Alpha  occ. eigenvalues --   -0.62623  -0.62166  -0.61374  -0.61031  -0.60813
 Alpha  occ. eigenvalues --   -0.60500  -0.59605  -0.58946  -0.58475  -0.58306
 Alpha  occ. eigenvalues --   -0.57943  -0.57293  -0.56476  -0.55859  -0.55678
 Alpha  occ. eigenvalues --   -0.55123  -0.54754  -0.54420  -0.54137  -0.53615
 Alpha  occ. eigenvalues --   -0.52647  -0.52609  -0.52468  -0.52016  -0.51421
 Alpha  occ. eigenvalues --   -0.50962  -0.49852  -0.49415  -0.48720  -0.48379
 Alpha  occ. eigenvalues --   -0.47704  -0.46999  -0.45798  -0.44435  -0.42795
 Alpha  occ. eigenvalues --   -0.41799  -0.41093  -0.40656  -0.39153  -0.38468
 Alpha  occ. eigenvalues --   -0.38024  -0.37929  -0.34202
 Alpha virt. eigenvalues --    0.17945   0.18890   0.20062   0.20149   0.20269
 Alpha virt. eigenvalues --    0.22006   0.22374   0.23650   0.23831   0.24784
 Alpha virt. eigenvalues --    0.25210   0.25427   0.26683   0.26969   0.27794

 Mulliken atomic charges:
              1
     1  C   -0.280544
     2  N   -0.782671
     3  C    0.824492
     4  O   -0.629978
     5  C    0.101356
     6  C   -0.472094
     7  C   -0.330536
     8  C   -0.313018
     9  C   -0.373439
    10  C   -0.173820
    11  C   -0.171974
    12  C   -0.361470
    13  C   -0.310030
    14  C   -0.329369
    15  C    0.091585
    16  C   -0.509407
    17  N   -0.787853
    18  C    0.767099
    19  C   -0.595602
    20  O   -0.615358
    21  C    0.820001
    22  O   -0.637321
    23  N   -0.806335
    24  C   -0.274388
    25  N   -0.843017
    26  C    0.744777
    27  C   -0.588709
    28  O   -0.591140
    29  H    0.186129
    30  H    0.202464
    31  H    0.161779
    32  H    0.390217
    33  H    0.196603
    34  H    0.144080
    35  H    0.213008
    36  H    0.161817
    37  H    0.177049
    38  H    0.163143
    39  H    0.180967
    40  H    0.166438
    41  H    0.214504
    42  H    0.168971
    43  H    0.170763
    44  H    0.195136
    45  H    0.159424
    46  H    0.156203
    47  H    0.199856
    48  H    0.172866
    49  H    0.182357
    50  H    0.183571
    51  H    0.147420
    52  H    0.225547
    53  H    0.391332
    54  H    0.209691
    55  H    0.210948
    56  H    0.176849
    57  H    0.394949
    58  H    0.163110
    59  H    0.197782
    60  H    0.184816
    61  H    0.382037
    62  H    0.218900
    63  H    0.177131
    64  H    0.200905
 Sum of Mulliken atomic charges =   0.00000

 Dipole moment (field-independent basis, Debye):
    X=              5.3074    Y=              5.4351    Z=              3.4982  Tot=              8.3634
 Quadrupole moment (field-independent basis, Debye-Ang):
   XX=           -149.3234   YY=           -178.0727   ZZ=           -156.9839
   XY=             -0.4908   XZ=             13.8166   YZ=             -5.1235

 Normal termination of Gaussian 09 at Thu Dec  5 17:55:19 2019.
