 Gaussian 09, Revision A.02,
 Gaussian 09:  EM64L-G09RevA.02 11-Jun-2009

 ---------------------------------
 #SP HF/6-31G* Geom=(ModRedundant)
 ---------------------------------

 ------------
 paramfit run
 ------------
 Symbolic Z-matrix:
 Charge =  0 Multiplicity = 1

                         Standard orientation:
 ---------------------------------------------------------------------
 Center     Atomic      Atomic             Coordinates (Angstroms)
 Number     Number       Type             X           Y           Z
 ---------------------------------------------------------------------
      1          6    20001001       -1.790547   -0.499664    2.215749
      2          7    20001014       -2.554666   -0.477163    0.985765
      3          6    20001002       -3.446978    0.516061    0.763515
      4          8    20001024       -3.485041    1.511129    1.432946
      5          6    90000001       -4.332948    0.372079   -0.486969
      6          6    90000002       -5.560016    1.280042   -0.353736
      7          6    90000002       -3.514189    0.706930   -1.763335
      8          6    90000002       -2.903658    2.112220   -1.911829
      9          6    90000002       -1.557649    2.384871   -1.211430
     10          6    20001004       -1.345862    1.578668    0.048514
     11          6    20001004       -0.652898    0.459477    0.182568
     12          6    90000002        0.097516   -0.290061   -0.892060
     13          6    90000002        1.622406   -0.081678   -0.862871
     14          6    90000002        2.260337   -0.557944    0.449048
     15          6    90000002        3.808096   -0.571064    0.543478
     16          6    90000002        4.183229   -1.024110    1.963856
     17          7    20001014        4.323745   -1.530317   -0.423718
     18          6    20001002        5.661739   -1.650194   -0.665500
     19          6    20001001        6.016411   -2.389492   -1.935323
     20          8    20001024        6.498817   -1.205368    0.069737
     21          6    20001002        4.335787    0.830988    0.163322
     22          8    20001024        4.487032    1.129098   -0.990881
     23          7    20001014        4.515100    1.720602    1.163529
     24          6    20001001        5.055216    3.035021    0.882847
     25          7    20001014       -4.744520   -1.028000   -0.665346
     26          6    20001002       -5.468523   -1.727100    0.254845
     27          6    20001001       -6.088827   -3.011035   -0.255892
     28          8    20001024       -5.596972   -1.362176    1.389072
     29          1    20001035       -2.422823   -0.666194    3.080298
     30          1    20001035       -1.276035    0.441504    2.343035
     31          1    20001035       -1.057289   -1.293835    2.152668
     32          1    20001029       -2.742985   -1.349395    0.549837
     33          1    20001034       -5.270568    2.308495   -0.200646
     34          1    20001034       -6.160039    1.211097   -1.256208
     35          1    20001034       -6.160699    0.979159    0.492181
     36          1    20001034       -4.199533    0.566221   -2.596236
     37          1    20001034       -2.736624   -0.041497   -1.879654
     38          1    20001034       -2.755486    2.272009   -2.975845
     39          1    20001034       -3.618433    2.863031   -1.591277
     40          1    20001034       -1.467613    3.437680   -0.977230
     41          1    20001034       -0.773952    2.170030   -1.929411
     42          1    20001033       -1.816941    1.977021    0.932547
     43          1    20001033       -0.607045    0.023040    1.168053
     44          1    20001034       -0.264976   -0.004938   -1.872249
     45          1    20001034       -0.117153   -1.352811   -0.786841
     46          1    20001034        2.044647   -0.611189   -1.712402
     47          1    20001034        1.843310    0.965134   -1.024791
     48          1    20001034        1.928507   -1.571281    0.664848
     49          1    20001034        1.897200    0.066175    1.257106
     50          1    20001034        3.860573   -2.050104    2.097312
     51          1    20001034        3.678036   -0.424510    2.713952
     52          1    20001034        5.249694   -0.982461    2.127123
     53          1    20001029        3.742714   -1.689916   -1.214694
     54          1    20001034        7.028843   -2.755997   -1.859724
     55          1    20001034        5.958786   -1.694599   -2.767746
     56          1    20001034        5.339797   -3.214543   -2.129923
     57          1    20001029        4.613905    1.377132    2.089583
     58          1    20001035        5.006011    3.628858    1.786096
     59          1    20001035        4.467606    3.514247    0.113637
     60          1    20001035        6.085318    2.983440    0.545235
     61          1    20001029       -4.809323   -1.339635   -1.608867
     62          1    20001034       -6.288560   -3.660500    0.583915
     63          1    20001034       -5.449868   -3.520674   -0.968316
     64          1    20001034       -7.029159   -2.781620   -0.746755
 ---------------------------------------------------------------------

 SCF Done:  E(RHF) =  -1295.49303490     A.U. after   15 cycles

 The electronic state is 1-A.
 Alpha  occ. eigenvalues --  -20.53715 -20.52404 -20.52081 -20.51559 -15.59733
 Alpha  occ. eigenvalues --  -15.57850 -15.57540 -15.56925 -11.36050 -11.34292
 Alpha  occ. eigenvalues --  -11.34173 -11.33649 -11.29214 -11.28542 -11.25744
 Alpha  occ. eigenvalues --  -11.24945 -11.24460 -11.24085 -11.23348 -11.22592
 Alpha  occ. eigenvalues --  -11.22278 -11.22147 -11.22014 -11.21803 -11.21102
 Alpha  occ. eigenvalues --  -11.21011 -11.19447 -11.17748  -1.40764  -1.39759
 Alpha  occ. eigenvalues --   -1.39370  -1.38086  -1.25680  -1.23559  -1.23192
 Alpha  occ. eigenvalues --   -1.22565  -1.10174  -1.09247  -1.06948  -1.03966
 Alpha  occ. eigenvalues --   -1.00955  -0.99237  -0.98682  -0.97605  -0.95002
 Alpha  occ. eigenvalues --   -0.94523  -0.92188  -0.87014  -0.85525  -0.83013
 Alpha  occ. eigenvalues --   -0.81517  -0.79485  -0.78762  -0.77458  -0.76851
 Alpha  occ. eigenvalues --   -0.72080  -0.71526  -0.71321  -0.69882  -0.68230
 Alpha  occ. eigenvalues --   -0.67856  -0.66215  -0.64682  -0.64277  -0.63676
 Alpha  occ. eigenvalues --   -0.62898  -0.62441  -0.61825  -0.61470  -0.61160
 Alpha  occ. eigenvalues --   -0.60412  -0.60125  -0.59323  -0.58879  -0.58612
 Alpha  occ. eigenvalues --   -0.57892  -0.57308  -0.56701  -0.56474  -0.56256
 Alpha  occ. eigenvalues --   -0.56063  -0.55176  -0.54986  -0.54702  -0.53629
 Alpha  occ. eigenvalues --   -0.52941  -0.52661  -0.52327  -0.51930  -0.51549
 Alpha  occ. eigenvalues --   -0.50565  -0.50072  -0.49719  -0.48649  -0.48567
 Alpha  occ. eigenvalues --   -0.47962  -0.46135  -0.45999  -0.43346  -0.42692
 Alpha  occ. eigenvalues --   -0.41757  -0.41461  -0.41086  -0.39644  -0.39263
 Alpha  occ. eigenvalues --   -0.38791  -0.38229  -0.29220
 Alpha virt. eigenvalues --    0.16029   0.18782   0.19428   0.19922   0.21053
 Alpha virt. eigenvalues --    0.21597   0.22699   0.22951   0.23507   0.24234
 Alpha virt. eigenvalues --    0.25445   0.26014   0.26866   0.27045   0.27331

 Mulliken atomic charges:
              1
     1  C   -0.358579
     2  N   -0.789139
     3  C    0.851434
     4  O   -0.634397
     5  C    0.113886
     6  C   -0.471826
     7  C   -0.338675
     8  C   -0.321491
     9  C   -0.331071
    10  C   -0.309050
    11  C   -0.112001
    12  C   -0.345850
    13  C   -0.306151
    14  C   -0.329767
    15  C    0.092114
    16  C   -0.509738
    17  N   -0.788176
    18  C    0.767460
    19  C   -0.595517
    20  O   -0.613681
    21  C    0.821436
    22  O   -0.640223
    23  N   -0.805264
    24  C   -0.275266
    25  N   -0.843254
    26  C    0.744722
    27  C   -0.588667
    28  O   -0.591072
    29  H    0.207297
    30  H    0.228609
    31  H    0.186044
    32  H    0.395361
    33  H    0.197769
    34  H    0.145697
    35  H    0.212431
    36  H    0.161532
    37  H    0.183253
    38  H    0.163606
    39  H    0.176261
    40  H    0.175069
    41  H    0.163466
    42  H    0.266125
    43  H    0.175635
    44  H    0.164470
    45  H    0.135493
    46  H    0.146558
    47  H    0.201222
    48  H    0.167354
    49  H    0.187074
    50  H    0.182133
    51  H    0.149160
    52  H    0.226713
    53  H    0.389452
    54  H    0.211205
    55  H    0.209154
    56  H    0.175460
    57  H    0.395569
    58  H    0.165697
    59  H    0.198975
    60  H    0.184223
    61  H    0.382746
    62  H    0.218548
    63  H    0.176832
    64  H    0.201606
 Sum of Mulliken atomic charges =   0.00000

 Dipole moment (field-independent basis, Debye):
    X=             -2.9425    Y=             -4.2326    Z=             -3.1174  Tot=              6.0243
 Quadrupole moment (field-independent basis, Debye-Ang):
   XX=           -200.6717   YY=           -162.1833   ZZ=           -167.4048
   XY=             13.4435   XZ=             30.4799   YZ=              8.7018

 Normal termination of Gaussian 09 at Thu Dec  5 17:28:48 2019.
