 Gaussian 09, Revision A.02,
 Gaussian 09:  EM64L-G09RevA.02 11-Jun-2009

 ---------------------------------
 #SP HF/6-31G* Geom=(ModRedundant)
 ---------------------------------

 ------------
 paramfit run
 ------------
 Symbolic Z-matrix:
 Charge =  0 Multiplicity = 1

                         Standard orientation:
 ---------------------------------------------------------------------
 Center     Atomic      Atomic             Coordinates (Angstroms)
 Number     Number       Type             X           Y           Z
 ---------------------------------------------------------------------
      1          6    20001001       -1.227589   -0.796741    1.732088
      2          7    20001014       -2.171236   -0.600870    0.651157
      3          6    20001002       -3.132968    0.345590    0.757894
      4          8    20001024       -3.115042    1.190688    1.609501
      5          6    90000001       -4.192166    0.373050   -0.358678
      6          6    90000002       -5.425868    1.143496    0.123227
      7          6    90000002       -3.595246    1.003977   -1.646009
      8          6    90000002       -3.081730    2.454372   -1.598119
      9          6    90000002       -1.658748    2.691669   -1.054566
     10          6    20001004       -1.387282    2.020449    0.271348
     11          6    20001004       -0.768375    0.869856    0.480744
     12          6    90000002       -0.180674   -0.058346   -0.555019
     13          6    90000002        1.351184    0.023310   -0.682712
     14          6    90000002        2.074784   -0.351120    0.617719
     15          6    90000002        3.619374   -0.483151    0.579573
     16          6    90000002        4.094121   -0.800098    2.007022
     17          7    20001014        3.968923   -1.586912   -0.304202
     18          6    20001002        5.265402   -1.845591   -0.643740
     19          6    20001001        5.442360   -2.752845   -1.839726
     20          8    20001024        6.199049   -1.391163   -0.042958
     21          6    20001002        4.209487    0.816762   -0.012641
     22          8    20001024        4.271363    0.966717   -1.203276
     23          7    20001014        4.547923    1.797060    0.852494
     24          6    20001001        5.153451    3.020601    0.368254
     25          7    20001014       -4.559591   -0.995443   -0.750669
     26          6    20001002       -5.100310   -1.908609    0.105733
     27          6    20001001       -5.730150   -3.116584   -0.556248
     28          8    20001024       -5.070662   -1.775033    1.296287
     29          1    20001035       -1.711445   -1.170992    2.626945
     30          1    20001035       -0.744697    0.139908    1.969211
     31          1    20001035       -0.475949   -1.506596    1.410379
     32          1    20001029       -2.382666   -1.386976    0.082281
     33          1    20001034       -5.165304    2.143606    0.434385
     34          1    20001034       -6.153069    1.200547   -0.681236
     35          1    20001034       -5.875046    0.643620    0.968974
     36          1    20001034       -4.392623    0.971147   -2.385152
     37          1    20001034       -2.810185    0.352324   -2.016558
     38          1    20001034       -3.105947    2.822798   -2.619537
     39          1    20001034       -3.773653    3.074615   -1.037838
     40          1    20001034       -1.470062    3.753104   -0.959082
     41          1    20001034       -0.964906    2.330864   -1.805723
     42          1    20001033       -1.741521    2.555722    1.137437
     43          1    20001033       -0.660782    0.547079    1.504462
     44          1    20001034       -0.613171    0.141832   -1.527820
     45          1    20001034       -0.461450   -1.080217   -0.302952
     46          1    20001034        1.650640   -0.633733   -1.494497
     47          1    20001034        1.631575    1.022374   -0.989439
     48          1    20001034        1.691856   -1.301559    0.983181
     49          1    20001034        1.836966    0.389852    1.371877
     50          1    20001034        3.711523   -1.773285    2.291816
     51          1    20001034        3.707956   -0.078129    2.719074
     52          1    20001034        5.171473   -0.829631    2.071659
     53          1    20001029        3.305004   -1.786890   -1.016895
     54          1    20001034        6.427872   -3.191911   -1.807368
     55          1    20001034        5.356572   -2.155686   -2.742592
     56          1    20001034        4.691774   -3.535068   -1.873370
     57          1    20001029        4.709214    1.555044    1.801558
     58          1    20001035        5.234154    3.716176    1.193230
     59          1    20001035        4.531779    3.456009   -0.400230
     60          1    20001035        6.140122    2.844365   -0.047886
     61          1    20001029       -4.753309   -1.127526   -1.718437
     62          1    20001034       -5.768026   -3.926083    0.158070
     63          1    20001034       -5.184460   -3.432552   -1.438255
     64          1    20001034       -6.744330   -2.870954   -0.854418
 ---------------------------------------------------------------------

 SCF Done:  E(RHF) =  -1295.23263556     A.U. after   15 cycles

 The electronic state is 1-A.
 Alpha  occ. eigenvalues --  -20.53889 -20.52422 -20.52096 -20.51519 -15.59964
 Alpha  occ. eigenvalues --  -15.58317 -15.57812 -15.57565 -11.36222 -11.34313
 Alpha  occ. eigenvalues --  -11.34313 -11.33620 -11.29394 -11.28567 -11.25004
 Alpha  occ. eigenvalues --  -11.24906 -11.24589 -11.24209 -11.23441 -11.22622
 Alpha  occ. eigenvalues --  -11.22111 -11.21791 -11.21721 -11.21624 -11.21124
 Alpha  occ. eigenvalues --  -11.20613 -11.17284 -11.16927  -1.40999  -1.40069
 Alpha  occ. eigenvalues --   -1.39362  -1.38067  -1.26740  -1.25038  -1.23576
 Alpha  occ. eigenvalues --   -1.22528  -1.10875  -1.09707  -1.08006  -1.03876
 Alpha  occ. eigenvalues --   -1.03076  -1.00417  -0.99058  -0.98271  -0.94973
 Alpha  occ. eigenvalues --   -0.94454  -0.92782  -0.87209  -0.85712  -0.85378
 Alpha  occ. eigenvalues --   -0.82110  -0.80054  -0.79466  -0.77434  -0.76835
 Alpha  occ. eigenvalues --   -0.75431  -0.71838  -0.71539  -0.69840  -0.68336
 Alpha  occ. eigenvalues --   -0.67969  -0.67243  -0.65032  -0.64261  -0.63906
 Alpha  occ. eigenvalues --   -0.63435  -0.62859  -0.62031  -0.61523  -0.61200
 Alpha  occ. eigenvalues --   -0.60907  -0.60466  -0.59575  -0.59213  -0.58480
 Alpha  occ. eigenvalues --   -0.58358  -0.57781  -0.57356  -0.56666  -0.56085
 Alpha  occ. eigenvalues --   -0.55427  -0.55250  -0.54850  -0.54584  -0.53617
 Alpha  occ. eigenvalues --   -0.53088  -0.52786  -0.52049  -0.51756  -0.51535
 Alpha  occ. eigenvalues --   -0.50298  -0.49775  -0.48950  -0.48397  -0.47866
 Alpha  occ. eigenvalues --   -0.47531  -0.45821  -0.45290  -0.43276  -0.42519
 Alpha  occ. eigenvalues --   -0.41495  -0.41099  -0.40109  -0.39365  -0.38817
 Alpha  occ. eigenvalues --   -0.38154  -0.34156  -0.28318
 Alpha virt. eigenvalues --    0.17521   0.18619   0.19529   0.19834   0.21132
 Alpha virt. eigenvalues --    0.21546   0.22354   0.22709   0.23374   0.23984
 Alpha virt. eigenvalues --    0.24981   0.25989   0.26658   0.26771   0.27558

 Mulliken atomic charges:
              1
     1  C   -0.327392
     2  N   -0.823231
     3  C    0.857231
     4  O   -0.618992
     5  C    0.105022
     6  C   -0.471034
     7  C   -0.336168
     8  C   -0.315978
     9  C   -0.336029
    10  C   -0.218560
    11  C   -0.189762
    12  C   -0.313947
    13  C   -0.298058
    14  C   -0.341330
    15  C    0.095762
    16  C   -0.510046
    17  N   -0.788745
    18  C    0.767678
    19  C   -0.595487
    20  O   -0.613397
    21  C    0.821956
    22  O   -0.640003
    23  N   -0.805072
    24  C   -0.275231
    25  N   -0.845152
    26  C    0.743975
    27  C   -0.588691
    28  O   -0.589356
    29  H    0.205161
    30  H    0.229247
    31  H    0.200657
    32  H    0.413534
    33  H    0.198685
    34  H    0.146184
    35  H    0.212588
    36  H    0.164139
    37  H    0.174475
    38  H    0.160068
    39  H    0.172056
    40  H    0.168593
    41  H    0.156899
    42  H    0.205561
    43  H    0.172273
    44  H    0.169520
    45  H    0.136661
    46  H    0.141332
    47  H    0.201156
    48  H    0.165362
    49  H    0.185856
    50  H    0.182183
    51  H    0.149952
    52  H    0.226860
    53  H    0.389199
    54  H    0.211399
    55  H    0.209144
    56  H    0.174947
    57  H    0.395591
    58  H    0.165668
    59  H    0.199262
    60  H    0.183904
    61  H    0.383640
    62  H    0.219196
    63  H    0.176792
    64  H    0.202295
 Sum of Mulliken atomic charges =   0.00000

 Dipole moment (field-independent basis, Debye):
    X=             -3.5031    Y=             -3.1650    Z=             -3.3755  Tot=              5.8037
 Quadrupole moment (field-independent basis, Debye-Ang):
   XX=           -191.1895   YY=           -161.9426   ZZ=           -171.6487
   XY=             11.2977   XZ=             33.1177   YZ=             11.3441

 Normal termination of Gaussian 09 at Thu Dec  5 17:13:30 2019.
