 Gaussian 09, Revision A.02,
 Gaussian 09:  EM64L-G09RevA.02 11-Jun-2009

 ---------------------------------
 #SP HF/6-31G* Geom=(ModRedundant)
 ---------------------------------

 ------------
 paramfit run
 ------------
 Symbolic Z-matrix:
 Charge =  0 Multiplicity = 1

                         Standard orientation:
 ---------------------------------------------------------------------
 Center     Atomic      Atomic             Coordinates (Angstroms)
 Number     Number       Type             X           Y           Z
 ---------------------------------------------------------------------
      1          6    20001001        0.508089    1.226324    0.076705
      2          7    20001014        1.794406    0.750942   -0.388748
      3          6    20001002        2.584070    0.023930    0.435869
      4          8    20001024        2.184253   -0.443062    1.466311
      5          6    90000001        3.998848   -0.296424   -0.079067
      6          6    90000002        4.896015   -0.692242    1.098329
      7          6    90000002        3.936327   -1.420419   -1.148801
      8          6    90000002        3.374383   -2.797820   -0.753045
      9          6    90000002        1.842838   -2.973828   -0.758470
     10          6    20001004        1.208176   -2.877939    0.609114
     11          6    20001004        0.614367   -1.826685    1.150422
     12          6    90000002        0.424979   -0.461071    0.534805
     13          6    90000002       -0.993828   -0.199141   -0.001799
     14          6    90000002       -2.064947   -0.273865    1.094575
     15          6    90000002       -3.512713    0.143439    0.727863
     16          6    90000002       -4.389909   -0.081062    1.970271
     17          7    20001014       -3.514197    1.558385    0.382238
     18          6    20001002       -4.626499    2.168295   -0.121597
     19          6    20001001       -4.377337    3.506445   -0.778923
     20          8    20001024       -5.722323    1.685183   -0.051499
     21          6    20001002       -3.955565   -0.659308   -0.516405
     22          8    20001024       -3.652723   -0.286023   -1.617712
     23          7    20001014       -4.595131   -1.830116   -0.306304
     24          6    20001001       -5.082206   -2.606949   -1.427684
     25          7    20001014        4.560761    0.862057   -0.788719
     26          6    20001002        4.758567    2.080975   -0.210112
     27          6    20001001        5.660603    3.020728   -0.982972
     28          8    20001024        4.248099    2.394358    0.827844
     29          1    20001035        0.611379    1.955948    0.871645
     30          1    20001035       -0.075766    0.396215    0.446510
     31          1    20001035       -0.015175    1.678933   -0.756178
     32          1    20001029        2.255123    1.289453   -1.084472
     33          1    20001034        4.482758   -1.528868    1.640738
     34          1    20001034        5.880585   -0.961418    0.727649
     35          1    20001034        4.993550    0.131287    1.790581
     36          1    20001034        4.963475   -1.574749   -1.471864
     37          1    20001034        3.399109   -1.043262   -2.013341
     38          1    20001034        3.786933   -3.512447   -1.459251
     39          1    20001034        3.752001   -3.086230    0.222454
     40          1    20001034        1.579973   -3.924140   -1.204758
     41          1    20001034        1.435493   -2.212431   -1.414350
     42          1    20001033        1.248585   -3.780125    1.197793
     43          1    20001033        0.211219   -1.945463    2.143964
     44          1    20001034        1.127029   -0.314009   -0.276961
     45          1    20001034        0.665471    0.292459    1.283771
     46          1    20001034       -0.992861    0.778821   -0.475047
     47          1    20001034       -1.215840   -0.909686   -0.787080
     48          1    20001034       -1.766287    0.350093    1.934225
     49          1    20001034       -2.110837   -1.291260    1.464911
     50          1    20001034       -4.065387    0.596782    2.751164
     51          1    20001034       -4.280942   -1.091276    2.351024
     52          1    20001034       -5.431213    0.116327    1.764206
     53          1    20001029       -2.652705    1.911036    0.032694
     54          1    20001034       -5.300560    4.065096   -0.804045
     55          1    20001034       -4.046360    3.334592   -1.798749
     56          1    20001034       -3.614459    4.079113   -0.262734
     57          1    20001029       -5.030223   -1.979882    0.573227
     58          1    20001035       -5.450123   -3.554852   -1.057499
     59          1    20001035       -4.275920   -2.789156   -2.122905
     60          1    20001035       -5.880847   -2.095515   -1.955282
     61          1    20001029        5.132086    0.647825   -1.575637
     62          1    20001034        5.449984    4.035699   -0.678921
     63          1    20001034        5.530290    2.925772   -2.055144
     64          1    20001034        6.695587    2.796496   -0.745632
 ---------------------------------------------------------------------

 SCF Done:  E(RHF) =  -1294.81038079     A.U. after   15 cycles

 The electronic state is 1-A.
 Alpha  occ. eigenvalues --  -20.54038 -20.53706 -20.51866 -20.51442 -15.60108
 Alpha  occ. eigenvalues --  -15.58686 -15.57715 -15.57345 -11.36338 -11.35293
 Alpha  occ. eigenvalues --  -11.34074 -11.33511 -11.30004 -11.28314 -11.24886
 Alpha  occ. eigenvalues --  -11.24674 -11.24588 -11.23087 -11.22526 -11.22344
 Alpha  occ. eigenvalues --  -11.21465 -11.21464 -11.21344 -11.21260 -11.18537
 Alpha  occ. eigenvalues --  -11.18480 -11.18452 -11.18130  -1.44933  -1.40836
 Alpha  occ. eigenvalues --   -1.39196  -1.37924  -1.31900  -1.25974  -1.23411
 Alpha  occ. eigenvalues --   -1.22435  -1.20957  -1.10096  -1.07322  -1.05957
 Alpha  occ. eigenvalues --   -1.01607  -0.99519  -0.99063  -0.97835  -0.95005
 Alpha  occ. eigenvalues --   -0.94556  -0.91115  -0.89818  -0.87196  -0.83906
 Alpha  occ. eigenvalues --   -0.82290  -0.80573  -0.79258  -0.78461  -0.77100
 Alpha  occ. eigenvalues --   -0.76651  -0.73403  -0.72294  -0.71127  -0.69565
 Alpha  occ. eigenvalues --   -0.68940  -0.66962  -0.66468  -0.64500  -0.64235
 Alpha  occ. eigenvalues --   -0.63659  -0.63083  -0.62890  -0.61559  -0.61311
 Alpha  occ. eigenvalues --   -0.60994  -0.60597  -0.59856  -0.58971  -0.58634
 Alpha  occ. eigenvalues --   -0.58241  -0.57962  -0.57272  -0.56848  -0.55862
 Alpha  occ. eigenvalues --   -0.55050  -0.54962  -0.54441  -0.54338  -0.53340
 Alpha  occ. eigenvalues --   -0.53101  -0.52577  -0.52370  -0.51550  -0.51353
 Alpha  occ. eigenvalues --   -0.50787  -0.49788  -0.49387  -0.48434  -0.48067
 Alpha  occ. eigenvalues --   -0.46362  -0.45747  -0.44518  -0.43071  -0.41552
 Alpha  occ. eigenvalues --   -0.41344  -0.40900  -0.38892  -0.38639  -0.38000
 Alpha  occ. eigenvalues --   -0.35552  -0.29998  -0.24625
 Alpha virt. eigenvalues --    0.16325   0.18502   0.19684   0.19750   0.20217
 Alpha virt. eigenvalues --    0.21702   0.22766   0.23281   0.23931   0.24710
 Alpha virt. eigenvalues --    0.25375   0.26278   0.26544   0.26812   0.27409

 Mulliken atomic charges:
              1
     1  C   -0.423042
     2  N   -0.846771
     3  C    0.774505
     4  O   -0.562646
     5  C    0.117352
     6  C   -0.472963
     7  C   -0.339607
     8  C   -0.312560
     9  C   -0.367304
    10  C   -0.216358
    11  C   -0.042357
    12  C   -0.636919
    13  C   -0.432617
    14  C   -0.334013
    15  C    0.089896
    16  C   -0.510478
    17  N   -0.789173
    18  C    0.768019
    19  C   -0.596279
    20  O   -0.614167
    21  C    0.824389
    22  O   -0.642814
    23  N   -0.805176
    24  C   -0.274703
    25  N   -0.842654
    26  C    0.747665
    27  C   -0.589153
    28  O   -0.591700
    29  H    0.185191
    30  H    0.394867
    31  H    0.107823
    32  H    0.398925
    33  H    0.202886
    34  H    0.148583
    35  H    0.212639
    36  H    0.165958
    37  H    0.177164
    38  H    0.163921
    39  H    0.183563
    40  H    0.175541
    41  H    0.163452
    42  H    0.151423
    43  H    0.158120
    44  H    0.372095
    45  H    0.263746
    46  H    0.206501
    47  H    0.228262
    48  H    0.185882
    49  H    0.195655
    50  H    0.185534
    51  H    0.150921
    52  H    0.225385
    53  H    0.392471
    54  H    0.210797
    55  H    0.207542
    56  H    0.178467
    57  H    0.396235
    58  H    0.165215
    59  H    0.197459
    60  H    0.183951
    61  H    0.384526
    62  H    0.220511
    63  H    0.178939
    64  H    0.201479
 Sum of Mulliken atomic charges =   0.00000

 Dipole moment (field-independent basis, Debye):
    X=              5.3814    Y=             -0.6364    Z=             -2.8346  Tot=              6.1155
 Quadrupole moment (field-independent basis, Debye-Ang):
   XX=           -163.2779   YY=           -164.5563   ZZ=           -176.0406
   XY=             11.7368   XZ=            -27.8297   YZ=             -6.4231

 Normal termination of Gaussian 09 at Thu Dec  5 18:02:16 2019.
