 Gaussian 09, Revision A.02,
 Gaussian 09:  EM64L-G09RevA.02 11-Jun-2009

 ---------------------------------
 #SP HF/6-31G* Geom=(ModRedundant)
 ---------------------------------

 ------------
 paramfit run
 ------------
 Symbolic Z-matrix:
 Charge =  0 Multiplicity = 1

                         Standard orientation:
 ---------------------------------------------------------------------
 Center     Atomic      Atomic             Coordinates (Angstroms)
 Number     Number       Type             X           Y           Z
 ---------------------------------------------------------------------
      1          6    20001001        3.447383    2.941676   -0.476807
      2          7    20001014        4.052845    1.629300   -0.568083
      3          6    20001002        3.896749    0.742152    0.442220
      4          8    20001024        3.094918    0.899295    1.320922
      5          6    90000001        4.709013   -0.561304    0.339189
      6          6    90000002        4.794813   -1.222810    1.718641
      7          6    90000002        4.065015   -1.510888   -0.707311
      8          6    90000002        2.622439   -1.999707   -0.484454
      9          6    90000002        1.475603   -1.063443   -0.914356
     10          6    20001004        0.426246   -1.730530   -1.772332
     11          6    20001004       -0.742932   -2.214508   -1.385623
     12          6    90000002       -1.317612   -2.220689    0.010607
     13          6    90000002       -2.388747   -1.143576    0.259735
     14          6    90000002       -3.610741   -1.300646   -0.655127
     15          6    90000002       -4.839823   -0.392835   -0.390774
     16          6    90000002       -5.887857   -0.703069   -1.471898
     17          7    20001014       -5.384102   -0.719104    0.920272
     18          6    20001002       -6.384775    0.020512    1.481235
     19          6    20001001       -6.578699   -0.190917    2.965315
     20          8    20001024       -7.063458    0.782535    0.850479
     21          6    20001002       -4.368026    1.078743   -0.366530
     22          8    20001024       -3.903117    1.549594    0.636511
     23          7    20001014       -4.405676    1.763481   -1.530016
     24          6    20001001       -4.026035    3.160877   -1.566870
     25          7    20001014        6.054653   -0.286808   -0.185536
     26          6    20001002        6.952079    0.537500    0.426685
     27          6    20001001        8.379285    0.412295   -0.064767
     28          8    20001024        6.636707    1.314431    1.282874
     29          1    20001035        3.887807    3.534680    0.316492
     30          1    20001035        2.389136    2.842795   -0.284302
     31          1    20001035        3.585198    3.452392   -1.421545
     32          1    20001029        4.882082    1.546181   -1.108215
     33          1    20001034        3.812272   -1.409941    2.124263
     34          1    20001034        5.329184   -2.164455    1.635041
     35          1    20001034        5.318832   -0.581038    2.411793
     36          1    20001034        4.701239   -2.392799   -0.733221
     37          1    20001034        4.145336   -1.049188   -1.686424
     38          1    20001034        2.519613   -2.921530   -1.049509
     39          1    20001034        2.478138   -2.267340    0.557142
     40          1    20001034        1.873793   -0.207532   -1.443718
     41          1    20001034        1.025328   -0.672189   -0.008813
     42          1    20001033        0.672089   -1.809872   -2.818936
     43          1    20001033       -1.369747   -2.654992   -2.145122
     44          1    20001034       -0.529343   -2.090585    0.742160
     45          1    20001034       -1.750169   -3.201868    0.202383
     46          1    20001034       -2.678739   -1.201448    1.305168
     47          1    20001034       -1.948508   -0.164132    0.126661
     48          1    20001034       -3.968086   -2.327066   -0.607200
     49          1    20001034       -3.301124   -1.127373   -1.679073
     50          1    20001034       -6.228625   -1.723652   -1.342019
     51          1    20001034       -5.460833   -0.627249   -2.466525
     52          1    20001034       -6.744196   -0.049841   -1.396309
     53          1    20001029       -4.731460   -1.095114    1.569414
     54          1    20001034       -7.575884    0.118607    3.238956
     55          1    20001034       -5.863272    0.427357    3.499194
     56          1    20001034       -6.421700   -1.224437    3.254397
     57          1    20001029       -5.002407    1.435656   -2.252339
     58          1    20001035       -4.008180    3.486947   -2.598510
     59          1    20001035       -3.040580    3.282516   -1.141770
     60          1    20001035       -4.719364    3.781416   -1.008319
     61          1    20001029        6.433460   -0.987129   -0.783536
     62          1    20001034        8.910642    1.323018    0.170213
     63          1    20001034        8.431228    0.223495   -1.131166
     64          1    20001034        8.862131   -0.412217    0.449860
 ---------------------------------------------------------------------

 SCF Done:  E(RHF) =  -1295.61777254     A.U. after   14 cycles

 The electronic state is 1-A.
 Alpha  occ. eigenvalues --  -20.53559 -20.51798 -20.51629 -20.51332 -15.59535
 Alpha  occ. eigenvalues --  -15.57698 -15.57254 -15.57210 -11.35885 -11.34001
 Alpha  occ. eigenvalues --  -11.33615 -11.33426 -11.28947 -11.28310 -11.24847
 Alpha  occ. eigenvalues --  -11.24579 -11.24291 -11.24108 -11.23107 -11.22517
 Alpha  occ. eigenvalues --  -11.22246 -11.22212 -11.22164 -11.21981 -11.21972
 Alpha  occ. eigenvalues --  -11.21583 -11.21505 -11.20818  -1.40486  -1.39113
 Alpha  occ. eigenvalues --   -1.38429  -1.37836  -1.25337  -1.23284  -1.22407
 Alpha  occ. eigenvalues --   -1.21804  -1.10540  -1.09105  -1.07082  -1.04053
 Alpha  occ. eigenvalues --   -1.01190  -0.99195  -0.98518  -0.95262  -0.95044
 Alpha  occ. eigenvalues --   -0.94428  -0.91827  -0.87103  -0.85455  -0.82533
 Alpha  occ. eigenvalues --   -0.81142  -0.79245  -0.78749  -0.76918  -0.76644
 Alpha  occ. eigenvalues --   -0.72157  -0.71170  -0.70857  -0.69147  -0.67787
 Alpha  occ. eigenvalues --   -0.66437  -0.65577  -0.64218  -0.63936  -0.63277
 Alpha  occ. eigenvalues --   -0.62545  -0.62146  -0.61635  -0.61189  -0.60867
 Alpha  occ. eigenvalues --   -0.60611  -0.59769  -0.59100  -0.58560  -0.58374
 Alpha  occ. eigenvalues --   -0.57952  -0.57186  -0.56975  -0.56058  -0.55869
 Alpha  occ. eigenvalues --   -0.54924  -0.54826  -0.54565  -0.54213  -0.54012
 Alpha  occ. eigenvalues --   -0.52811  -0.52706  -0.52379  -0.51977  -0.51633
 Alpha  occ. eigenvalues --   -0.50948  -0.49912  -0.49545  -0.48599  -0.48470
 Alpha  occ. eigenvalues --   -0.47718  -0.47400  -0.46085  -0.44515  -0.42781
 Alpha  occ. eigenvalues --   -0.41809  -0.41242  -0.40812  -0.39127  -0.38598
 Alpha  occ. eigenvalues --   -0.38053  -0.38008  -0.34380
 Alpha virt. eigenvalues --    0.17721   0.18894   0.19914   0.20200   0.20465
 Alpha virt. eigenvalues --    0.21860   0.22199   0.23532   0.23938   0.24496
 Alpha virt. eigenvalues --    0.24951   0.25375   0.26624   0.27166   0.27736

 Mulliken atomic charges:
              1
     1  C   -0.279541
     2  N   -0.783856
     3  C    0.822178
     4  O   -0.626349
     5  C    0.100620
     6  C   -0.472362
     7  C   -0.329312
     8  C   -0.316678
     9  C   -0.373290
    10  C   -0.173778
    11  C   -0.174544
    12  C   -0.354576
    13  C   -0.311104
    14  C   -0.329229
    15  C    0.091357
    16  C   -0.509473
    17  N   -0.787731
    18  C    0.767281
    19  C   -0.595714
    20  O   -0.614614
    21  C    0.820153
    22  O   -0.637428
    23  N   -0.806328
    24  C   -0.275137
    25  N   -0.843073
    26  C    0.744658
    27  C   -0.588681
    28  O   -0.591136
    29  H    0.186071
    30  H    0.200381
    31  H    0.161189
    32  H    0.390062
    33  H    0.197455
    34  H    0.143670
    35  H    0.213135
    36  H    0.160457
    37  H    0.176068
    38  H    0.171856
    39  H    0.181533
    40  H    0.182060
    41  H    0.203779
    42  H    0.169406
    43  H    0.170917
    44  H    0.181318
    45  H    0.160556
    46  H    0.153088
    47  H    0.201379
    48  H    0.173029
    49  H    0.183621
    50  H    0.183518
    51  H    0.147772
    52  H    0.226101
    53  H    0.390482
    54  H    0.210420
    55  H    0.210537
    56  H    0.176401
    57  H    0.394923
    58  H    0.163271
    59  H    0.199493
    60  H    0.185085
    61  H    0.381911
    62  H    0.218771
    63  H    0.176965
    64  H    0.201010
 Sum of Mulliken atomic charges =   0.00000

 Dipole moment (field-independent basis, Debye):
    X=              4.5593    Y=             -4.6006    Z=             -5.9859  Tot=              8.8195
 Quadrupole moment (field-independent basis, Debye-Ang):
   XX=           -158.5948   YY=           -168.3224   ZZ=           -165.6859
   XY=             -1.2369   XZ=            -16.9114   YZ=            -15.1808

 Normal termination of Gaussian 09 at Thu Dec  5 17:39:14 2019.
