 Gaussian 09, Revision A.02,
 Gaussian 09:  EM64L-G09RevA.02 11-Jun-2009

 ---------------------------------
 #SP HF/6-31G* Geom=(ModRedundant)
 ---------------------------------

 ------------
 paramfit run
 ------------
 Symbolic Z-matrix:
 Charge =  0 Multiplicity = 1

                         Standard orientation:
 ---------------------------------------------------------------------
 Center     Atomic      Atomic             Coordinates (Angstroms)
 Number     Number       Type             X           Y           Z
 ---------------------------------------------------------------------
      1          6    20001001       -3.872484    2.940079    0.433820
      2          7    20001014       -4.227755    1.538345    0.512364
      3          6    20001002       -4.330926    0.803674   -0.619768
      4          8    20001024       -3.926488    1.192420   -1.680453
      5          6    90000001       -4.874213   -0.627538   -0.458968
      6          6    90000002       -5.363060   -1.146214   -1.815377
      7          6    90000002       -3.778979   -1.550526    0.141165
      8          6    90000002       -2.462396   -1.747567   -0.631766
      9          6    90000002       -1.370442   -0.671341   -0.470488
     10          6    20001004       -0.722114   -0.653016    0.893921
     11          6    20001004        0.428340   -1.202861    1.247304
     12          6    90000002        1.378221   -1.986399    0.373491
     13          6    90000002        2.616436   -1.195074   -0.084980
     14          6    90000002        3.483582   -0.719777    1.088502
     15          6    90000002        4.851737   -0.065545    0.764806
     16          6    90000002        5.484187    0.372046    2.095961
     17          7    20001014        5.702784   -1.061072    0.127487
     18          6    20001002        6.917555   -0.729031   -0.398950
     19          6    20001001        7.503825   -1.752279   -1.344494
     20          8    20001024        7.483426    0.295448   -0.135558
     21          6    20001002        4.620435    1.087231   -0.238355
     22          8    20001024        4.539588    0.859181   -1.415379
     23          7    20001014        4.413610    2.321592    0.269149
     24          6    20001001        4.241196    3.455033   -0.616168
     25          7    20001014       -5.964722   -0.654322    0.526681
     26          6    20001002       -7.121629    0.055502    0.394817
     27          6    20001001       -8.247281   -0.373442    1.312985
     28          8    20001024       -7.239483    0.961278   -0.380954
     29          1    20001035       -4.642041    3.524209   -0.057630
     30          1    20001035       -2.951004    3.052642   -0.118381
     31          1    20001035       -3.726848    3.316577    1.438506
     32          1    20001029       -4.788901    1.252425    1.280252
     33          1    20001034       -4.576627   -1.111304   -2.553778
     34          1    20001034       -5.703807   -2.171735   -1.708436
     35          1    20001034       -6.180219   -0.539764   -2.177863
     36          1    20001034       -4.242371   -2.529804    0.238643
     37          1    20001034       -3.561463   -1.215287    1.150413
     38          1    20001034       -2.043895   -2.689961   -0.290637
     39          1    20001034       -2.668597   -1.874987   -1.689414
     40          1    20001034       -1.780525    0.307965   -0.680622
     41          1    20001034       -0.625149   -0.854256   -1.236591
     42          1    20001033       -1.271049   -0.123110    1.655488
     43          1    20001033        0.737656   -1.082390    2.273741
     44          1    20001034        0.864145   -2.351858   -0.507210
     45          1    20001034        1.704688   -2.869082    0.922019
     46          1    20001034        3.187404   -1.833092   -0.753788
     47          1    20001034        2.299571   -0.348376   -0.679562
     48          1    20001034        3.690562   -1.559895    1.747967
     49          1    20001034        2.916623   -0.001741    1.669305
     50          1    20001034        5.700202   -0.511946    2.684585
     51          1    20001034        4.800929    0.987145    2.672321
     52          1    20001034        6.408691    0.907833    1.941162
     53          1    20001029        5.221464   -1.781477   -0.360430
     54          1    20001034        8.570743   -1.602408   -1.409954
     55          1    20001034        7.070024   -1.602420   -2.328610
     56          1    20001034        7.293511   -2.768187   -1.028135
     57          1    20001029        4.721225    2.510130    1.193884
     58          1    20001035        3.969610    4.318450   -0.023147
     59          1    20001035        3.450030    3.249462   -1.322158
     60          1    20001035        5.147671    3.674031   -1.171231
     61          1    20001029       -6.008304   -1.469568    1.096788
     62          1    20001034       -8.941613    0.447046    1.421042
     63          1    20001034       -7.887239   -0.678641    2.289086
     64          1    20001034       -8.770784   -1.212772    0.866587
 ---------------------------------------------------------------------

 SCF Done:  E(RHF) =  -1295.62115435     A.U. after   14 cycles

 The electronic state is 1-A.
 Alpha  occ. eigenvalues --  -20.53638 -20.52009 -20.51788 -20.51543 -15.59605
 Alpha  occ. eigenvalues --  -15.57856 -15.57483 -15.57449 -11.35960 -11.34216
 Alpha  occ. eigenvalues --  -11.33804 -11.33631 -11.29030 -11.28528 -11.24936
 Alpha  occ. eigenvalues --  -11.24853 -11.24354 -11.24072 -11.23360 -11.22661
 Alpha  occ. eigenvalues --  -11.22525 -11.22476 -11.22311 -11.22259 -11.22080
 Alpha  occ. eigenvalues --  -11.21771 -11.21599 -11.20847  -1.40573  -1.39323
 Alpha  occ. eigenvalues --   -1.38655  -1.38046  -1.25423  -1.23509  -1.22568
 Alpha  occ. eigenvalues --   -1.22019  -1.10741  -1.09249  -1.07196  -1.04207
 Alpha  occ. eigenvalues --   -1.01250  -0.99306  -0.98708  -0.95474  -0.95129
 Alpha  occ. eigenvalues --   -0.94554  -0.92134  -0.87250  -0.85673  -0.82793
 Alpha  occ. eigenvalues --   -0.81321  -0.79452  -0.78780  -0.77126  -0.76832
 Alpha  occ. eigenvalues --   -0.71989  -0.71312  -0.71049  -0.68991  -0.67946
 Alpha  occ. eigenvalues --   -0.66629  -0.65834  -0.64446  -0.63978  -0.63670
 Alpha  occ. eigenvalues --   -0.62579  -0.62297  -0.61787  -0.61386  -0.61098
 Alpha  occ. eigenvalues --   -0.60893  -0.59873  -0.59301  -0.58704  -0.58397
 Alpha  occ. eigenvalues --   -0.58182  -0.57784  -0.56684  -0.56344  -0.56169
 Alpha  occ. eigenvalues --   -0.55368  -0.54788  -0.54693  -0.54520  -0.54073
 Alpha  occ. eigenvalues --   -0.53045  -0.52760  -0.52519  -0.52142  -0.51608
 Alpha  occ. eigenvalues --   -0.51017  -0.50293  -0.49742  -0.49116  -0.48542
 Alpha  occ. eigenvalues --   -0.48269  -0.47025  -0.46369  -0.44525  -0.42846
 Alpha  occ. eigenvalues --   -0.41923  -0.41459  -0.41024  -0.39267  -0.38794
 Alpha  occ. eigenvalues --   -0.38279  -0.38237  -0.34519
 Alpha virt. eigenvalues --    0.17335   0.18814   0.19697   0.20062   0.20335
 Alpha virt. eigenvalues --    0.21636   0.22000   0.23217   0.23491   0.24137
 Alpha virt. eigenvalues --    0.25097   0.25611   0.26540   0.27126   0.27525

 Mulliken atomic charges:
              1
     1  C   -0.279531
     2  N   -0.783398
     3  C    0.820701
     4  O   -0.628418
     5  C    0.102945
     6  C   -0.472843
     7  C   -0.332888
     8  C   -0.315274
     9  C   -0.371025
    10  C   -0.173762
    11  C   -0.175888
    12  C   -0.353931
    13  C   -0.310832
    14  C   -0.329072
    15  C    0.091073
    16  C   -0.509576
    17  N   -0.787625
    18  C    0.767310
    19  C   -0.595702
    20  O   -0.613931
    21  C    0.820557
    22  O   -0.639065
    23  N   -0.806027
    24  C   -0.275639
    25  N   -0.843133
    26  C    0.744608
    27  C   -0.588667
    28  O   -0.591556
    29  H    0.186939
    30  H    0.197945
    31  H    0.162218
    32  H    0.390742
    33  H    0.199208
    34  H    0.143910
    35  H    0.212715
    36  H    0.161569
    37  H    0.179214
    38  H    0.166868
    39  H    0.180495
    40  H    0.211571
    41  H    0.177107
    42  H    0.173098
    43  H    0.170245
    44  H    0.177380
    45  H    0.160542
    46  H    0.151289
    47  H    0.199930
    48  H    0.173149
    49  H    0.184866
    50  H    0.183492
    51  H    0.148278
    52  H    0.226584
    53  H    0.389835
    54  H    0.211097
    55  H    0.209626
    56  H    0.176261
    57  H    0.395192
    58  H    0.164553
    59  H    0.200115
    60  H    0.185005
    61  H    0.382442
    62  H    0.218675
    63  H    0.177105
    64  H    0.201329
 Sum of Mulliken atomic charges =   0.00000

 Dipole moment (field-independent basis, Debye):
    X=             -3.0507    Y=             -4.3518    Z=              6.7195  Tot=              8.5672
 Quadrupole moment (field-independent basis, Debye-Ang):
   XX=           -188.1444   YY=           -156.4650   ZZ=           -173.8987
   XY=             10.9395   XZ=            -19.3711   YZ=             11.7002

 Normal termination of Gaussian 09 at Thu Dec  5 17:07:52 2019.
