 Gaussian 09, Revision A.02,
 Gaussian 09:  EM64L-G09RevA.02 11-Jun-2009

 ---------------------------------
 #SP HF/6-31G* Geom=(ModRedundant)
 ---------------------------------

 ------------
 paramfit run
 ------------
 Symbolic Z-matrix:
 Charge =  0 Multiplicity = 1

                         Standard orientation:
 ---------------------------------------------------------------------
 Center     Atomic      Atomic             Coordinates (Angstroms)
 Number     Number       Type             X           Y           Z
 ---------------------------------------------------------------------
      1          6    20001001       -2.382048    0.221403    2.533552
      2          7    20001014       -2.983788   -0.134569    1.265310
      3          6    20001002       -3.749577    0.765430    0.605251
      4          8    20001024       -3.780710    1.927506    0.902498
      5          6    90000001       -4.484104    0.251153   -0.645898
      6          6    90000002       -5.632148    1.204075   -0.994862
      7          6    90000002       -3.487771    0.104872   -1.828068
      8          6    90000002       -2.740475    1.352039   -2.333793
      9          6    90000002       -1.472025    1.783871   -1.571433
     10          6    20001004       -1.258647    1.050584   -0.267961
     11          6    20001004       -0.469071    0.012061   -0.047057
     12          6    90000002        0.414116   -0.698404   -1.044540
     13          6    90000002        1.906866   -0.337710   -0.938898
     14          6    90000002        2.508255   -0.698407    0.426072
     15          6    90000002        4.041423   -0.553224    0.607638
     16          6    90000002        4.372964   -0.913042    2.065054
     17          7    20001014        4.705405   -1.491653   -0.286794
     18          6    20001002        6.060809   -1.486163   -0.447754
     19          6    20001001        6.561587   -2.233305   -1.662580
     20          8    20001024        6.804784   -0.932702    0.313381
     21          6    20001002        4.451639    0.879337    0.197496
     22          8    20001024        4.642138    1.147673   -0.958201
     23          7    20001014        4.482854    1.819218    1.166841
     24          6    20001001        4.907989    3.169610    0.860403
     25          7    20001014       -4.994039   -1.108854   -0.418350
     26          6    20001002       -5.885409   -1.428560    0.562934
     27          6    20001001       -6.550337   -2.781014    0.411746
     28          8    20001024       -6.119428   -0.700829    1.485855
     29          1    20001035       -3.128312    0.380638    3.303411
     30          1    20001035       -1.805092    1.127733    2.422157
     31          1    20001035       -1.720533   -0.579441    2.839168
     32          1    20001029       -3.194180   -1.093191    1.113436
     33          1    20001034       -5.273013    2.211016   -1.143272
     34          1    20001034       -6.120209    0.864134   -1.903418
     35          1    20001034       -6.356900    1.229200   -0.194219
     36          1    20001034       -4.075140   -0.275714   -2.660757
     37          1    20001034       -2.771821   -0.672593   -1.580590
     38          1    20001034       -2.448716    1.140985   -3.358464
     39          1    20001034       -3.419303    2.197166   -2.382015
     40          1    20001034       -1.499405    2.848430   -1.378226
     41          1    20001034       -0.629387    1.621720   -2.234384
     42          1    20001033       -1.818613    1.432657    0.570235
     43          1    20001033       -0.440134   -0.380425    0.957372
     44          1    20001034        0.085074   -0.487816   -2.054912
     45          1    20001034        0.298260   -1.772604   -0.905739
     46          1    20001034        2.429044   -0.853783   -1.739756
     47          1    20001034        2.033875    0.719142   -1.133220
     48          1    20001034        2.264547   -1.731048    0.666473
     49          1    20001034        2.038052   -0.083911    1.184790
     50          1    20001034        4.144551   -1.960431    2.224378
     51          1    20001034        3.767515   -0.339292    2.759047
     52          1    20001034        5.418528   -0.758932    2.285925
     53          1    20001029        4.191301   -1.738009   -1.101483
     54          1    20001034        7.598577   -2.493697   -1.514565
     55          1    20001034        6.486535   -1.579287   -2.526150
     56          1    20001034        5.981648   -3.128550   -1.859018
     57          1    20001029        4.558892    1.522236    2.110943
     58          1    20001035        4.746885    3.788935    1.732987
     59          1    20001035        4.323694    3.558586    0.039475
     60          1    20001035        5.956622    3.208647    0.583637
     61          1    20001029       -4.969745   -1.714346   -1.208500
     62          1    20001034       -6.909206   -3.103647    1.378231
     63          1    20001034       -5.876629   -3.526504    0.004422
     64          1    20001034       -7.398769   -2.687817   -0.258538
 ---------------------------------------------------------------------

 SCF Done:  E(RHF) =  -1295.57485211     A.U. after   14 cycles

 The electronic state is 1-A.
 Alpha  occ. eigenvalues --  -20.53655 -20.52175 -20.52072 -20.51584 -15.59641
 Alpha  occ. eigenvalues --  -15.57880 -15.57530 -15.56875 -11.35985 -11.34282
 Alpha  occ. eigenvalues --  -11.34003 -11.33668 -11.29116 -11.28538 -11.25200
 Alpha  occ. eigenvalues --  -11.24979 -11.24394 -11.23969 -11.23319 -11.22660
 Alpha  occ. eigenvalues --  -11.22575 -11.22300 -11.22181 -11.21794 -11.21689
 Alpha  occ. eigenvalues --  -11.20939 -11.20863 -11.20481  -1.40637  -1.39375
 Alpha  occ. eigenvalues --   -1.39304  -1.38097  -1.25486  -1.23551  -1.22595
 Alpha  occ. eigenvalues --   -1.22310  -1.10613  -1.09220  -1.06987  -1.04183
 Alpha  occ. eigenvalues --   -1.00995  -0.99304  -0.98716  -0.95871  -0.95104
 Alpha  occ. eigenvalues --   -0.94587  -0.92259  -0.87241  -0.85636  -0.82713
 Alpha  occ. eigenvalues --   -0.81481  -0.79496  -0.78651  -0.77689  -0.76866
 Alpha  occ. eigenvalues --   -0.71761  -0.71360  -0.71009  -0.69584  -0.68113
 Alpha  occ. eigenvalues --   -0.66843  -0.65809  -0.64664  -0.64080  -0.63715
 Alpha  occ. eigenvalues --   -0.62679  -0.62138  -0.61912  -0.61484  -0.61334
 Alpha  occ. eigenvalues --   -0.60878  -0.60275  -0.59169  -0.58918  -0.58636
 Alpha  occ. eigenvalues --   -0.58065  -0.57310  -0.56799  -0.56193  -0.56173
 Alpha  occ. eigenvalues --   -0.55421  -0.55039  -0.54860  -0.54729  -0.53857
 Alpha  occ. eigenvalues --   -0.53155  -0.52809  -0.52419  -0.51955  -0.51423
 Alpha  occ. eigenvalues --   -0.51235  -0.49868  -0.49685  -0.49006  -0.48775
 Alpha  occ. eigenvalues --   -0.48205  -0.46338  -0.46153  -0.43749  -0.42929
 Alpha  occ. eigenvalues --   -0.42154  -0.41502  -0.41083  -0.39939  -0.39141
 Alpha  occ. eigenvalues --   -0.38832  -0.38257  -0.32146
 Alpha virt. eigenvalues --    0.16710   0.18873   0.19609   0.20027   0.20914
 Alpha virt. eigenvalues --    0.21606   0.22159   0.22889   0.23289   0.23579
 Alpha virt. eigenvalues --    0.25509   0.25742   0.26377   0.27031   0.27439

 Mulliken atomic charges:
              1
     1  C   -0.296976
     2  N   -0.766751
     3  C    0.790032
     4  O   -0.626992
     5  C    0.121396
     6  C   -0.471556
     7  C   -0.342201
     8  C   -0.323733
     9  C   -0.347923
    10  C   -0.207251
    11  C   -0.163949
    12  C   -0.346250
    13  C   -0.307963
    14  C   -0.328426
    15  C    0.090948
    16  C   -0.509647
    17  N   -0.787780
    18  C    0.767353
    19  C   -0.595565
    20  O   -0.613792
    21  C    0.821013
    22  O   -0.640282
    23  N   -0.805514
    24  C   -0.275267
    25  N   -0.843678
    26  C    0.744832
    27  C   -0.588656
    28  O   -0.591641
    29  H    0.196455
    30  H    0.200557
    31  H    0.163865
    32  H    0.391853
    33  H    0.197560
    34  H    0.144955
    35  H    0.212440
    36  H    0.160698
    37  H    0.190106
    38  H    0.167464
    39  H    0.182425
    40  H    0.188328
    41  H    0.170873
    42  H    0.230293
    43  H    0.161387
    44  H    0.167365
    45  H    0.149969
    46  H    0.147192
    47  H    0.198047
    48  H    0.170688
    49  H    0.186226
    50  H    0.182707
    51  H    0.148921
    52  H    0.226497
    53  H    0.389588
    54  H    0.211157
    55  H    0.209083
    56  H    0.175784
    57  H    0.395611
    58  H    0.165723
    59  H    0.198577
    60  H    0.184515
    61  H    0.382474
    62  H    0.218510
    63  H    0.177046
    64  H    0.201279
 Sum of Mulliken atomic charges =   0.00000

 Dipole moment (field-independent basis, Debye):
    X=             -2.5392    Y=             -5.5601    Z=             -2.1253  Tot=              6.4714
 Quadrupole moment (field-independent basis, Debye-Ang):
   XX=           -206.5947   YY=           -162.4009   ZZ=           -164.7792
   XY=             20.1293   XZ=             23.2803   YZ=              6.2885

 Normal termination of Gaussian 09 at Thu Dec  5 17:41:41 2019.
