 Gaussian 09, Revision A.02,
 Gaussian 09:  EM64L-G09RevA.02 11-Jun-2009

 ---------------------------------
 #SP HF/6-31G* Geom=(ModRedundant)
 ---------------------------------

 ------------
 paramfit run
 ------------
 Symbolic Z-matrix:
 Charge =  0 Multiplicity = 1

                         Standard orientation:
 ---------------------------------------------------------------------
 Center     Atomic      Atomic             Coordinates (Angstroms)
 Number     Number       Type             X           Y           Z
 ---------------------------------------------------------------------
      1          6    20001001        2.928650    2.058277   -1.789757
      2          7    20001014        3.402647    0.878900   -1.095753
      3          6    20001002        4.007525    1.001989    0.108856
      4          8    20001024        3.977673    2.018885    0.745076
      5          6    90000001        4.628020   -0.278316    0.696385
      6          6    90000002        5.643746    0.094888    1.781218
      7          6    90000002        3.513696   -1.204138    1.255616
      8          6    90000002        2.611105   -0.685656    2.389699
      9          6    90000002        1.411002    0.200219    2.000324
     10          6    20001004        1.140397    0.250532    0.514888
     11          6    20001004        0.245209   -0.446856   -0.165586
     12          6    90000002       -0.727599   -1.467353    0.374772
     13          6    90000002       -2.169587   -0.950250    0.525904
     14          6    90000002       -2.783750   -0.509281   -0.809485
     15          6    90000002       -4.288328   -0.134518   -0.830587
     16          6    90000002       -4.632655    0.325858   -2.256401
     17          7    20001014       -5.066627   -1.321243   -0.502768
     18          6    20001002       -6.415733   -1.257310   -0.305580
     19          6    20001001       -7.016235   -2.458400    0.388383
     20          8    20001024       -7.081260   -0.322070   -0.654209
     21          6    20001002       -4.545327    0.929601    0.260434
     22          8    20001024       -4.724739    0.596915    1.401074
     23          7    20001014       -4.456472    2.227317   -0.102911
     24          6    20001001       -4.735578    3.274794    0.857867
     25          7    20001014        5.271994   -1.068765   -0.362821
     26          6    20001002        6.297070   -0.607018   -1.134625
     27          6    20001001        7.048744   -1.670257   -1.908335
     28          8    20001024        6.578249    0.555616   -1.207844
     29          1    20001035        3.745441    2.702576   -2.094191
     30          1    20001035        2.269652    2.621005   -1.144945
     31          1    20001035        2.376608    1.744727   -2.666848
     32          1    20001029        3.671957    0.100574   -1.650700
     33          1    20001034        5.187560    0.694086    2.554386
     34          1    20001034        6.046708   -0.810358    2.225501
     35          1    20001034        6.453991    0.669356    1.356464
     36          1    20001034        4.027300   -2.085576    1.633105
     37          1    20001034        2.898949   -1.541931    0.427208
     38          1    20001034        2.218011   -1.562998    2.895037
     39          1    20001034        3.207228   -0.156128    3.125641
     40          1    20001034        1.558629    1.207581    2.367466
     41          1    20001034        0.544505   -0.185706    2.525756
     42          1    20001033        1.753153    0.942631   -0.039767
     43          1    20001033        0.190318   -0.274144   -1.229033
     44          1    20001034       -0.394587   -1.830106    1.339644
     45          1    20001034       -0.728306   -2.330473   -0.289770
     46          1    20001034       -2.758901   -1.742343    0.979417
     47          1    20001034       -2.182817   -0.128834    1.230127
     48          1    20001034       -2.651100   -1.298797   -1.546099
     49          1    20001034       -2.235972    0.351347   -1.175011
     50          1    20001034       -4.518205   -0.515586   -2.929791
     51          1    20001034       -3.956054    1.104918   -2.592047
     52          1    20001034       -5.651010    0.677594   -2.326900
     53          1    20001029       -4.596659   -1.996342    0.055877
     54          1    20001034       -8.072917   -2.499691    0.172095
     55          1    20001034       -6.884348   -2.340638    1.459767
     56          1    20001034       -6.541744   -3.385099    0.084297
     57          1    20001029       -4.548686    2.456391   -1.064332
     58          1    20001035       -4.492513    4.228962    0.409085
     59          1    20001035       -4.126055    3.134054    1.738377
     60          1    20001035       -5.778096    3.277357    1.159373
     61          1    20001029        5.204019   -2.057135   -0.262563
     62          1    20001034        7.545412   -1.205733   -2.747686
     63          1    20001034        6.395287   -2.460042   -2.261583
     64          1    20001034        7.800830   -2.114561   -1.264315
 ---------------------------------------------------------------------

 SCF Done:  E(RHF) =  -1295.59757333     A.U. after   14 cycles

 The electronic state is 1-A.
 Alpha  occ. eigenvalues --  -20.53680 -20.52355 -20.52064 -20.51586 -15.59638
 Alpha  occ. eigenvalues --  -15.57885 -15.57526 -15.57320 -11.35998 -11.34273
 Alpha  occ. eigenvalues --  -11.34041 -11.33670 -11.29080 -11.28545 -11.25266
 Alpha  occ. eigenvalues --  -11.24976 -11.24391 -11.23806 -11.23335 -11.22628
 Alpha  occ. eigenvalues --  -11.22555 -11.22380 -11.22243 -11.21799 -11.21583
 Alpha  occ. eigenvalues --  -11.21481 -11.20974 -11.20914  -1.40642  -1.39372
 Alpha  occ. eigenvalues --   -1.39118  -1.38094  -1.25501  -1.23549  -1.22599
 Alpha  occ. eigenvalues --   -1.22461  -1.10680  -1.09223  -1.07021  -1.04198
 Alpha  occ. eigenvalues --   -1.01048  -0.99326  -0.98729  -0.95851  -0.95073
 Alpha  occ. eigenvalues --   -0.94562  -0.92233  -0.87274  -0.85673  -0.82792
 Alpha  occ. eigenvalues --   -0.81386  -0.79495  -0.78646  -0.77542  -0.76868
 Alpha  occ. eigenvalues --   -0.71808  -0.71342  -0.71017  -0.69434  -0.68158
 Alpha  occ. eigenvalues --   -0.66869  -0.65843  -0.64711  -0.63942  -0.63718
 Alpha  occ. eigenvalues --   -0.62690  -0.62238  -0.61705  -0.61445  -0.61354
 Alpha  occ. eigenvalues --   -0.60964  -0.60407  -0.59262  -0.58822  -0.58663
 Alpha  occ. eigenvalues --   -0.58230  -0.57465  -0.56773  -0.56248  -0.56151
 Alpha  occ. eigenvalues --   -0.55601  -0.54958  -0.54878  -0.54742  -0.53574
 Alpha  occ. eigenvalues --   -0.53228  -0.52913  -0.52342  -0.51977  -0.51346
 Alpha  occ. eigenvalues --   -0.51137  -0.49923  -0.49653  -0.49384  -0.48655
 Alpha  occ. eigenvalues --   -0.48250  -0.46467  -0.46279  -0.44432  -0.42969
 Alpha  occ. eigenvalues --   -0.42093  -0.41502  -0.41076  -0.39449  -0.38837
 Alpha  occ. eigenvalues --   -0.38435  -0.38226  -0.33682
 Alpha virt. eigenvalues --    0.17397   0.18841   0.19620   0.19888   0.20407
 Alpha virt. eigenvalues --    0.21601   0.21983   0.22918   0.23212   0.23603
 Alpha virt. eigenvalues --    0.25578   0.25888   0.26229   0.27155   0.27409

 Mulliken atomic charges:
              1
     1  C   -0.291950
     2  N   -0.793483
     3  C    0.805771
     4  O   -0.623336
     5  C    0.111797
     6  C   -0.471623
     7  C   -0.344990
     8  C   -0.316901
     9  C   -0.356838
    10  C   -0.173471
    11  C   -0.201436
    12  C   -0.347745
    13  C   -0.308565
    14  C   -0.328551
    15  C    0.090864
    16  C   -0.509586
    17  N   -0.787678
    18  C    0.767318
    19  C   -0.595611
    20  O   -0.613840
    21  C    0.820880
    22  O   -0.640042
    23  N   -0.805664
    24  C   -0.275362
    25  N   -0.843667
    26  C    0.744991
    27  C   -0.588667
    28  O   -0.592330
    29  H    0.196105
    30  H    0.195931
    31  H    0.167222
    32  H    0.395034
    33  H    0.197728
    34  H    0.144979
    35  H    0.212018
    36  H    0.161056
    37  H    0.192697
    38  H    0.165801
    39  H    0.182089
    40  H    0.197145
    41  H    0.171864
    42  H    0.230277
    43  H    0.160619
    44  H    0.170870
    45  H    0.154679
    46  H    0.148819
    47  H    0.198216
    48  H    0.171869
    49  H    0.185910
    50  H    0.183012
    51  H    0.148602
    52  H    0.226499
    53  H    0.389653
    54  H    0.211144
    55  H    0.209191
    56  H    0.175996
    57  H    0.395463
    58  H    0.165543
    59  H    0.198932
    60  H    0.184639
    61  H    0.382895
    62  H    0.218478
    63  H    0.177364
    64  H    0.201378
 Sum of Mulliken atomic charges =   0.00000

 Dipole moment (field-independent basis, Debye):
    X=              2.4609    Y=             -5.9509    Z=             -2.8370  Tot=              7.0369
 Quadrupole moment (field-independent basis, Debye-Ang):
   XX=           -207.3876   YY=           -158.3524   ZZ=           -168.2426
   XY=            -27.1907   XZ=              0.0117   YZ=             -4.8755

 Normal termination of Gaussian 09 at Thu Dec  5 17:53:36 2019.
