 Gaussian 09, Revision A.02,
 Gaussian 09:  EM64L-G09RevA.02 11-Jun-2009

 ---------------------------------
 #SP HF/6-31G* Geom=(ModRedundant)
 ---------------------------------

 ------------
 paramfit run
 ------------
 Symbolic Z-matrix:
 Charge =  0 Multiplicity = 1

                         Standard orientation:
 ---------------------------------------------------------------------
 Center     Atomic      Atomic             Coordinates (Angstroms)
 Number     Number       Type             X           Y           Z
 ---------------------------------------------------------------------
      1          6    20001001        3.614044    2.978460   -0.333766
      2          7    20001014        4.156526    1.644200   -0.484457
      3          6    20001002        4.015106    0.741290    0.513973
      4          8    20001024        3.267783    0.911716    1.437124
      5          6    90000001        4.763687   -0.592503    0.340744
      6          6    90000002        4.892641   -1.288763    1.699580
      7          6    90000002        4.025442   -1.489651   -0.689655
      8          6    90000002        2.576653   -1.922273   -0.400722
      9          6    90000002        1.450558   -0.928825   -0.749447
     10          6    20001004        0.454987   -1.456586   -1.755720
     11          6    20001004       -0.731352   -1.989789   -1.512710
     12          6    90000002       -1.383710   -2.203823   -0.167953
     13          6    90000002       -2.473265   -1.173255    0.178978
     14          6    90000002       -3.640886   -1.187747   -0.816697
     15          6    90000002       -4.888033   -0.326397   -0.489063
     16          6    90000002       -5.871740   -0.467861   -1.661991
     17          7    20001014       -5.503427   -0.844194    0.725313
     18          6    20001002       -6.538282   -0.194301    1.333401
     19          6    20001001       -6.814279   -0.625529    2.755608
     20          8    20001024       -7.184675    0.655693    0.786749
     21          6    20001002       -4.426703    1.123522   -0.217707
     22          8    20001024       -4.021701    1.437164    0.869275
     23          7    20001014       -4.402649    1.975235   -1.265555
     24          6    20001001       -4.029466    3.361246   -1.070847
     25          7    20001014        6.090730   -0.362890   -0.248889
     26          6    20001002        7.053731    0.408492    0.331861
     27          6    20001001        8.446583    0.234659   -0.237231
     28          8    20001024        6.817408    1.178012    1.219628
     29          1    20001035        4.120530    3.533875    0.447218
     30          1    20001035        2.563997    2.919833   -0.087415
     31          1    20001035        3.724349    3.504628   -1.273624
     32          1    20001029        4.952067    1.538728   -1.069501
     33          1    20001034        3.925428   -1.443657    2.152836
     34          1    20001034        5.380649   -2.249902    1.568069
     35          1    20001034        5.479416   -0.685843    2.377157
     36          1    20001034        4.620665   -2.396752   -0.767735
     37          1    20001034        4.074469   -1.009225   -1.661801
     38          1    20001034        2.404662   -2.825630   -0.978635
     39          1    20001034        2.475456   -2.207606    0.641256
     40          1    20001034        1.873069   -0.004296   -1.121056
     41          1    20001034        0.947786   -0.676635    0.177621
     42          1    20001033        0.759830   -1.378644   -2.786791
     43          1    20001033       -1.311889   -2.309500   -2.363900
     44          1    20001034       -0.638641   -2.187241    0.618218
     45          1    20001034       -1.820810   -3.201434   -0.150299
     46          1    20001034       -2.821343   -1.386554    1.185814
     47          1    20001034       -2.031793   -0.186191    0.219441
     48          1    20001034       -3.994536   -2.208712   -0.943566
     49          1    20001034       -3.275081   -0.863635   -1.783904
     50          1    20001034       -6.213488   -1.495401   -1.706156
     51          1    20001034       -5.389814   -0.244833   -2.608241
     52          1    20001034       -6.734667    0.169061   -1.537799
     53          1    20001029       -4.886258   -1.315235    1.346550
     54          1    20001034       -7.827031   -0.357741    3.015768
     55          1    20001034       -6.133573   -0.096432    3.415775
     56          1    20001034       -6.667952   -1.691175    2.894787
     57          1    20001029       -4.955884    1.761242   -2.061450
     58          1    20001035       -3.955388    3.838410   -2.039220
     59          1    20001035       -3.070224    3.414893   -0.577287
     60          1    20001035       -4.756660    3.892896   -0.465627
     61          1    20001029        6.407134   -1.064533   -0.880658
     62          1    20001034        9.028411    1.116506   -0.011853
     63          1    20001034        8.434578    0.068552   -1.308592
     64          1    20001034        8.919477   -0.621148    0.233692
 ---------------------------------------------------------------------

 SCF Done:  E(RHF) =  -1295.61687563     A.U. after   14 cycles

 The electronic state is 1-A.
 Alpha  occ. eigenvalues --  -20.53571 -20.51841 -20.51641 -20.51372 -15.59546
 Alpha  occ. eigenvalues --  -15.57727 -15.57302 -15.57240 -11.35897 -11.34045
 Alpha  occ. eigenvalues --  -11.33626 -11.33465 -11.28958 -11.28355 -11.24858
 Alpha  occ. eigenvalues --  -11.24629 -11.24302 -11.24112 -11.23163 -11.22501
 Alpha  occ. eigenvalues --  -11.22294 -11.22285 -11.22201 -11.22051 -11.22008
 Alpha  occ. eigenvalues --  -11.21622 -11.21528 -11.20816  -1.40498  -1.39154
 Alpha  occ. eigenvalues --   -1.38442  -1.37877  -1.25349  -1.23331  -1.22436
 Alpha  occ. eigenvalues --   -1.21838  -1.10584  -1.09137  -1.07114  -1.04088
 Alpha  occ. eigenvalues --   -1.01211  -0.99214  -0.98559  -0.95297  -0.95067
 Alpha  occ. eigenvalues --   -0.94453  -0.91880  -0.87133  -0.85500  -0.82575
 Alpha  occ. eigenvalues --   -0.81182  -0.79286  -0.78764  -0.76949  -0.76681
 Alpha  occ. eigenvalues --   -0.72172  -0.71206  -0.70878  -0.69134  -0.67819
 Alpha  occ. eigenvalues --   -0.66426  -0.65640  -0.64200  -0.64001  -0.63360
 Alpha  occ. eigenvalues --   -0.62540  -0.62161  -0.61694  -0.61231  -0.60890
 Alpha  occ. eigenvalues --   -0.60671  -0.59818  -0.59141  -0.58601  -0.58385
 Alpha  occ. eigenvalues --   -0.57970  -0.57230  -0.57045  -0.56115  -0.55932
 Alpha  occ. eigenvalues --   -0.54984  -0.54721  -0.54600  -0.54268  -0.54115
 Alpha  occ. eigenvalues --   -0.52858  -0.52693  -0.52402  -0.51992  -0.51669
 Alpha  occ. eigenvalues --   -0.50967  -0.49969  -0.49585  -0.48660  -0.48450
 Alpha  occ. eigenvalues --   -0.47619  -0.47543  -0.46150  -0.44505  -0.42785
 Alpha  occ. eigenvalues --   -0.41830  -0.41285  -0.40855  -0.39144  -0.38636
 Alpha  occ. eigenvalues --   -0.38088  -0.38044  -0.34413
 Alpha virt. eigenvalues --    0.17669   0.18883   0.19872   0.20199   0.20512
 Alpha virt. eigenvalues --    0.21817   0.22157   0.23490   0.23999   0.24386
 Alpha virt. eigenvalues --    0.24924   0.25414   0.26591   0.27109   0.27641

 Mulliken atomic charges:
              1
     1  C   -0.279413
     2  N   -0.783828
     3  C    0.820095
     4  O   -0.625549
     5  C    0.101013
     6  C   -0.472393
     7  C   -0.329561
     8  C   -0.318016
     9  C   -0.371387
    10  C   -0.173260
    11  C   -0.175330
    12  C   -0.353692
    13  C   -0.311176
    14  C   -0.329161
    15  C    0.091284
    16  C   -0.509492
    17  N   -0.787702
    18  C    0.767301
    19  C   -0.595719
    20  O   -0.614442
    21  C    0.820248
    22  O   -0.637712
    23  N   -0.806289
    24  C   -0.275327
    25  N   -0.843216
    26  C    0.744657
    27  C   -0.588677
    28  O   -0.591177
    29  H    0.186261
    30  H    0.199722
    31  H    0.161331
    32  H    0.390153
    33  H    0.197854
    34  H    0.143621
    35  H    0.213108
    36  H    0.160394
    37  H    0.175724
    38  H    0.173791
    39  H    0.181833
    40  H    0.187675
    41  H    0.198289
    42  H    0.169228
    43  H    0.170836
    44  H    0.179459
    45  H    0.160669
    46  H    0.152504
    47  H    0.201223
    48  H    0.173074
    49  H    0.183911
    50  H    0.183513
    51  H    0.147873
    52  H    0.226214
    53  H    0.390308
    54  H    0.210588
    55  H    0.210335
    56  H    0.176345
    57  H    0.394948
    58  H    0.163415
    59  H    0.199873
    60  H    0.185105
    61  H    0.381958
    62  H    0.218753
    63  H    0.176959
    64  H    0.201073
 Sum of Mulliken atomic charges =   0.00000

 Dipole moment (field-independent basis, Debye):
    X=              4.3023    Y=             -4.3876    Z=             -6.4254  Tot=              8.8908
 Quadrupole moment (field-independent basis, Debye-Ang):
   XX=           -162.8827   YY=           -164.8958   ZZ=           -168.7008
   XY=             -2.1895   XZ=            -18.1342   YZ=            -15.7249

 Normal termination of Gaussian 09 at Thu Dec  5 17:34:06 2019.
