 Gaussian 09, Revision A.02,
 Gaussian 09:  EM64L-G09RevA.02 11-Jun-2009

 ---------------------------------
 #SP HF/6-31G* Geom=(ModRedundant)
 ---------------------------------

 ------------
 paramfit run
 ------------
 Symbolic Z-matrix:
 Charge =  0 Multiplicity = 1

                         Standard orientation:
 ---------------------------------------------------------------------
 Center     Atomic      Atomic             Coordinates (Angstroms)
 Number     Number       Type             X           Y           Z
 ---------------------------------------------------------------------
      1          6    20001001       -3.378780    2.659400    1.016548
      2          7    20001014       -3.768128    1.286371    0.770691
      3          6    20001002       -4.198300    0.916443   -0.458217
      4          8    20001024       -4.066470    1.614422   -1.425271
      5          6    90000001       -4.748876   -0.515165   -0.587633
      6          6    90000002       -5.599054   -0.625084   -1.857656
      7          6    90000002       -3.580614   -1.538250   -0.595568
      8          6    90000002       -2.522372   -1.454992   -1.710390
      9          6    90000002       -1.375793   -0.439718   -1.533718
     10          6    20001004       -1.004219   -0.176551   -0.093248
     11          6    20001004       -0.007152   -0.711321    0.592781
     12          6    90000002        1.006314   -1.718792    0.105295
     13          6    90000002        2.385309   -1.120642   -0.226599
     14          6    90000002        3.054831   -0.465373    0.988834
     15          6    90000002        4.520343    0.019094    0.839790
     16          6    90000002        4.926555    0.685386    2.164364
     17          7    20001014        5.369698   -1.139429    0.599059
     18          6    20001002        6.691021   -1.002200    0.285479
     19          6    20001001        7.338536   -2.235741   -0.300954
     20          8    20001024        7.299226    0.017074    0.459579
     21          6    20001002        4.608178    0.948144   -0.392231
     22          8    20001024        4.732319    0.483939   -1.493608
     23          7    20001014        4.437312    2.271979   -0.186693
     24          6    20001001        4.557881    3.203167   -1.289668
     25          7    20001014       -5.544388   -0.867676    0.597411
     26          6    20001002       -6.660157   -0.188594    0.989304
     27          6    20001001       -7.526471   -0.906238    2.003506
     28          8    20001024       -6.932727    0.901765    0.573416
     29          1    20001035       -4.220948    3.337414    0.939098
     30          1    20001035       -2.629014    2.960122    0.299512
     31          1    20001035       -2.958119    2.726447    2.011989
     32          1    20001029       -4.122515    0.768064    1.540140
     33          1    20001034       -5.031812   -0.347819   -2.733037
     34          1    20001034       -5.948924   -1.646863   -1.970776
     35          1    20001034       -6.452394    0.034552   -1.797507
     36          1    20001034       -4.048983   -2.517067   -0.671510
     37          1    20001034       -3.091440   -1.509607    0.373023
     38          1    20001034       -2.075105   -2.441996   -1.783829
     39          1    20001034       -3.003286   -1.270546   -2.665416
     40          1    20001034       -1.633293    0.497573   -2.009683
     41          1    20001034       -0.520062   -0.825682   -2.076478
     42          1    20001033       -1.631303    0.534691    0.419601
     43          1    20001033        0.109423   -0.398025    1.618460
     44          1    20001034        0.636322   -2.227705   -0.776510
     45          1    20001034        1.127101   -2.485599    0.869501
     46          1    20001034        3.004743   -1.919312   -0.625099
     47          1    20001034        2.279013   -0.399206   -1.026012
     48          1    20001034        3.042096   -1.159875    1.826114
     49          1    20001034        2.464611    0.392672    1.288414
     50          1    20001034        4.931711   -0.067346    2.944076
     51          1    20001034        4.212983    1.449374    2.455086
     52          1    20001034        5.914299    1.117589    2.106904
     53          1    20001029        4.918964   -1.914390    0.168959
     54          1    20001034        8.407773   -2.170320   -0.168616
     55          1    20001034        7.120534   -2.268562   -1.364215
     56          1    20001034        6.966429   -3.147461    0.153671
     57          1    20001029        4.578925    2.630476    0.728039
     58          1    20001035        4.268665    4.187056   -0.944359
     59          1    20001035        3.900541    2.904319   -2.092923
     60          1    20001035        5.572126    3.243478   -1.673642
     61          1    20001029       -5.476788   -1.816026    0.893400
     62          1    20001034       -8.128324   -0.177427    2.526557
     63          1    20001034       -6.939280   -1.474594    2.716057
     64          1    20001034       -8.187998   -1.592549    1.484698
 ---------------------------------------------------------------------

 SCF Done:  E(RHF) =  -1295.61553050     A.U. after   14 cycles

 The electronic state is 1-A.
 Alpha  occ. eigenvalues --  -20.53670 -20.52065 -20.52046 -20.51597 -15.59617
 Alpha  occ. eigenvalues --  -15.57898 -15.57535 -15.57514 -11.35985 -11.34274
 Alpha  occ. eigenvalues --  -11.33954 -11.33682 -11.29025 -11.28566 -11.25083
 Alpha  occ. eigenvalues --  -11.24978 -11.24376 -11.23852 -11.23381 -11.22675
 Alpha  occ. eigenvalues --  -11.22545 -11.22477 -11.22315 -11.21921 -11.21812
 Alpha  occ. eigenvalues --  -11.21616 -11.21527 -11.20868  -1.40612  -1.39378
 Alpha  occ. eigenvalues --   -1.38838  -1.38101  -1.25458  -1.23559  -1.22611
 Alpha  occ. eigenvalues --   -1.22253  -1.10740  -1.09246  -1.07100  -1.04218
 Alpha  occ. eigenvalues --   -1.01135  -0.99328  -0.98741  -0.95671  -0.95091
 Alpha  occ. eigenvalues --   -0.94568  -0.92236  -0.87266  -0.85703  -0.82851
 Alpha  occ. eigenvalues --   -0.81344  -0.79503  -0.78706  -0.77302  -0.76879
 Alpha  occ. eigenvalues --   -0.71765  -0.71268  -0.71039  -0.69007  -0.68098
 Alpha  occ. eigenvalues --   -0.66850  -0.65859  -0.64659  -0.63934  -0.63688
 Alpha  occ. eigenvalues --   -0.62609  -0.62342  -0.61675  -0.61425  -0.61226
 Alpha  occ. eigenvalues --   -0.60908  -0.60267  -0.59339  -0.58699  -0.58639
 Alpha  occ. eigenvalues --   -0.58288  -0.57680  -0.56601  -0.56328  -0.56222
 Alpha  occ. eigenvalues --   -0.55641  -0.54915  -0.54767  -0.54705  -0.53686
 Alpha  occ. eigenvalues --   -0.53135  -0.52925  -0.52329  -0.52073  -0.51318
 Alpha  occ. eigenvalues --   -0.51135  -0.50170  -0.49763  -0.49423  -0.48549
 Alpha  occ. eigenvalues --   -0.48335  -0.46711  -0.46367  -0.44578  -0.42923
 Alpha  occ. eigenvalues --   -0.41979  -0.41512  -0.41079  -0.39329  -0.38846
 Alpha  occ. eigenvalues --   -0.38311  -0.38224  -0.34285
 Alpha virt. eigenvalues --    0.17487   0.18798   0.19632   0.19845   0.20251
 Alpha virt. eigenvalues --    0.21590   0.21992   0.23025   0.23319   0.23798
 Alpha virt. eigenvalues --    0.25604   0.25772   0.26351   0.27091   0.27591

 Mulliken atomic charges:
              1
     1  C   -0.283842
     2  N   -0.791063
     3  C    0.816212
     4  O   -0.624283
     5  C    0.104619
     6  C   -0.471989
     7  C   -0.342251
     8  C   -0.309286
     9  C   -0.371050
    10  C   -0.196708
    11  C   -0.187078
    12  C   -0.350628
    13  C   -0.309626
    14  C   -0.328855
    15  C    0.090966
    16  C   -0.509588
    17  N   -0.787638
    18  C    0.767304
    19  C   -0.595655
    20  O   -0.613829
    21  C    0.820743
    22  O   -0.639751
    23  N   -0.805809
    24  C   -0.275481
    25  N   -0.843468
    26  C    0.744826
    27  C   -0.588686
    28  O   -0.592215
    29  H    0.191196
    30  H    0.196582
    31  H    0.163131
    32  H    0.393038
    33  H    0.198112
    34  H    0.144465
    35  H    0.212118
    36  H    0.161356
    37  H    0.189510
    38  H    0.163676
    39  H    0.180485
    40  H    0.206410
    41  H    0.173577
    42  H    0.226038
    43  H    0.166216
    44  H    0.173989
    45  H    0.157844
    46  H    0.150014
    47  H    0.198737
    48  H    0.172581
    49  H    0.185468
    50  H    0.183264
    51  H    0.148463
    52  H    0.226594
    53  H    0.389701
    54  H    0.211185
    55  H    0.209319
    56  H    0.176140
    57  H    0.395379
    58  H    0.165333
    59  H    0.199324
    60  H    0.184803
    61  H    0.382844
    62  H    0.218494
    63  H    0.177312
    64  H    0.201410
 Sum of Mulliken atomic charges =   0.00000

 Dipole moment (field-independent basis, Debye):
    X=             -2.4668    Y=             -4.9945    Z=              5.2122  Tot=              7.6287
 Quadrupole moment (field-independent basis, Debye-Ang):
   XX=           -204.2573   YY=           -156.3320   ZZ=           -170.9853
   XY=             21.6184   XZ=            -11.8545   YZ=              6.0488

 Normal termination of Gaussian 09 at Thu Dec  5 18:05:25 2019.
