 Gaussian 09, Revision A.02,
 Gaussian 09:  EM64L-G09RevA.02 11-Jun-2009

 ---------------------------------
 #SP HF/6-31G* Geom=(ModRedundant)
 ---------------------------------

 ------------
 paramfit run
 ------------
 Symbolic Z-matrix:
 Charge =  0 Multiplicity = 1

                         Standard orientation:
 ---------------------------------------------------------------------
 Center     Atomic      Atomic             Coordinates (Angstroms)
 Number     Number       Type             X           Y           Z
 ---------------------------------------------------------------------
      1          6    20001001        2.173699   -2.040193    1.709698
      2          7    20001014        3.167807   -1.069586    1.301142
      3          6    20001002        3.162824   -0.590138    0.035357
      4          8    20001024        2.240571   -0.756286   -0.714037
      5          6    90000001        4.349997    0.305879   -0.361075
      6          6    90000002        4.451032    0.377772   -1.888316
      7          6    90000002        4.186175    1.717695    0.264657
      8          6    90000002        2.954474    2.562022   -0.109054
      9          6    90000002        1.641042    2.285565    0.649302
     10          6    20001004        0.486565    3.159336    0.218041
     11          6    20001004       -0.485374    2.852590   -0.625758
     12          6    90000002       -0.680572    1.552267   -1.367925
     13          6    90000002       -1.763348    0.636917   -0.768511
     14          6    90000002       -3.153717    1.286368   -0.767115
     15          6    90000002       -4.365928    0.411011   -0.356089
     16          6    90000002       -5.614915    1.307121   -0.377827
     17          7    20001014       -4.518812   -0.658008   -1.333512
     18          6    20001002       -5.417589   -1.668780   -1.150210
     19          6    20001001       -5.202217   -2.880384   -2.027954
     20          8    20001024       -6.313523   -1.607312   -0.354808
     21          6    20001002       -4.066645   -0.229005    1.018514
     22          8    20001024       -3.415306   -1.236336    1.089016
     23          7    20001014       -4.474221    0.440285    2.118475
     24          6    20001001       -4.270993   -0.127834    3.435343
     25          7    20001014        5.599140   -0.213697    0.214349
     26          6    20001002        6.099541   -1.452855   -0.057234
     27          6    20001001        7.546539   -1.662686    0.338098
     28          8    20001024        5.442336   -2.319366   -0.560603
     29          1    20001035        2.292923   -2.983256    1.188769
     30          1    20001035        1.184486   -1.657724    1.505007
     31          1    20001035        2.271024   -2.207169    2.775062
     32          1    20001029        4.046447   -1.094478    1.763373
     33          1    20001034        3.531707    0.737763   -2.324413
     34          1    20001034        5.260670    1.046205   -2.165662
     35          1    20001034        4.647069   -0.601937   -2.299005
     36          1    20001034        5.064851    2.279113   -0.045116
     37          1    20001034        4.249589    1.625117    1.344327
     38          1    20001034        3.224794    3.597815    0.074462
     39          1    20001034        2.761396    2.485393   -1.174053
     40          1    20001034        1.795368    2.403133    1.714067
     41          1    20001034        1.396904    1.240224    0.496028
     42          1    20001033        0.464351    4.141762    0.661277
     43          1    20001033       -1.233431    3.607340   -0.811570
     44          1    20001034        0.249258    0.997789   -1.405798
     45          1    20001034       -0.940417    1.779241   -2.401152
     46          1    20001034       -1.768913   -0.286798   -1.340430
     47          1    20001034       -1.480956    0.361541    0.239086
     48          1    20001034       -3.373082    1.671979   -1.760451
     49          1    20001034       -3.136378    2.139984   -0.099742
     50          1    20001034       -5.798078    1.622246   -1.398478
     51          1    20001034       -5.466687    2.202461    0.216963
     52          1    20001034       -6.489464    0.780901   -0.025696
     53          1    20001029       -3.685223   -0.923902   -1.805889
     54          1    20001034       -6.124137   -3.437972   -2.092915
     55          1    20001034       -4.445946   -3.510040   -1.568920
     56          1    20001034       -4.865119   -2.609244   -3.022555
     57          1    20001029       -5.196153    1.114556    2.021091
     58          1    20001035       -4.552559    0.608571    4.176523
     59          1    20001035       -3.228989   -0.379810    3.567104
     60          1    20001035       -4.862141   -1.026041    3.582044
     61          1    20001029        6.256704    0.474943    0.505782
     62          1    20001034        7.727190   -2.721569    0.452580
     63          1    20001034        7.799836   -1.147091    1.257637
     64          1    20001034        8.189522   -1.285623   -0.450697
 ---------------------------------------------------------------------

 SCF Done:  E(RHF) =  -1295.62350186     A.U. after   14 cycles

 The electronic state is 1-A.
 Alpha  occ. eigenvalues --  -20.53629 -20.51927 -20.51513 -20.51118 -15.59615
 Alpha  occ. eigenvalues --  -15.57525 -15.57317 -15.56903 -11.35951 -11.33888
 Alpha  occ. eigenvalues --  -11.33705 -11.33200 -11.29086 -11.27951 -11.24792
 Alpha  occ. eigenvalues --  -11.24475 -11.24330 -11.24179 -11.22589 -11.22585
 Alpha  occ. eigenvalues --  -11.21954 -11.21722 -11.21549 -11.21468 -11.21282
 Alpha  occ. eigenvalues --  -11.21250 -11.21045 -11.20931  -1.40570  -1.38858
 Alpha  occ. eigenvalues --   -1.38771  -1.37594  -1.25433  -1.22945  -1.22231
 Alpha  occ. eigenvalues --   -1.21907  -1.10218  -1.08819  -1.06803  -1.03762
 Alpha  occ. eigenvalues --   -1.01000  -0.99127  -0.98246  -0.95267  -0.94849
 Alpha  occ. eigenvalues --   -0.94252  -0.91427  -0.87002  -0.85088  -0.82401
 Alpha  occ. eigenvalues --   -0.80738  -0.78974  -0.78696  -0.77047  -0.76398
 Alpha  occ. eigenvalues --   -0.71743  -0.71114  -0.70661  -0.69167  -0.67493
 Alpha  occ. eigenvalues --   -0.66425  -0.65459  -0.64215  -0.63637  -0.62931
 Alpha  occ. eigenvalues --   -0.62777  -0.62253  -0.61147  -0.60904  -0.60793
 Alpha  occ. eigenvalues --   -0.60477  -0.59605  -0.58789  -0.58587  -0.58159
 Alpha  occ. eigenvalues --   -0.57968  -0.57330  -0.56205  -0.55829  -0.55562
 Alpha  occ. eigenvalues --   -0.55010  -0.54633  -0.54267  -0.54177  -0.53341
 Alpha  occ. eigenvalues --   -0.52675  -0.52455  -0.52379  -0.52019  -0.51200
 Alpha  occ. eigenvalues --   -0.51057  -0.50019  -0.49294  -0.48746  -0.48164
 Alpha  occ. eigenvalues --   -0.47426  -0.46814  -0.45422  -0.44154  -0.42874
 Alpha  occ. eigenvalues --   -0.41923  -0.40970  -0.40525  -0.39291  -0.38361
 Alpha  occ. eigenvalues --   -0.38186  -0.37821  -0.33937
 Alpha virt. eigenvalues --    0.18247   0.18834   0.20028   0.20114   0.20196
 Alpha virt. eigenvalues --    0.22134   0.22550   0.23618   0.23995   0.24490
 Alpha virt. eigenvalues --    0.25443   0.25948   0.26211   0.26861   0.27891

 Mulliken atomic charges:
              1
     1  C   -0.282513
     2  N   -0.780808
     3  C    0.823781
     4  O   -0.632311
     5  C    0.101877
     6  C   -0.472358
     7  C   -0.332343
     8  C   -0.312835
     9  C   -0.365489
    10  C   -0.176657
    11  C   -0.169224
    12  C   -0.377180
    13  C   -0.308604
    14  C   -0.329004
    15  C    0.091611
    16  C   -0.509334
    17  N   -0.787926
    18  C    0.766834
    19  C   -0.595361
    20  O   -0.616028
    21  C    0.820343
    22  O   -0.638789
    23  N   -0.806173
    24  C   -0.273935
    25  N   -0.843027
    26  C    0.744866
    27  C   -0.588772
    28  O   -0.591388
    29  H    0.186346
    30  H    0.204742
    31  H    0.163535
    32  H    0.390779
    33  H    0.197265
    34  H    0.144723
    35  H    0.212667
    36  H    0.162741
    37  H    0.177537
    38  H    0.160300
    39  H    0.182571
    40  H    0.161172
    41  H    0.209544
    42  H    0.167970
    43  H    0.169448
    44  H    0.221088
    45  H    0.156694
    46  H    0.159141
    47  H    0.194595
    48  H    0.172884
    49  H    0.181034
    50  H    0.183650
    51  H    0.147162
    52  H    0.224824
    53  H    0.392156
    54  H    0.209053
    55  H    0.210406
    56  H    0.177553
    57  H    0.395072
    58  H    0.163161
    59  H    0.196599
    60  H    0.184394
    61  H    0.382421
    62  H    0.219093
    63  H    0.177421
    64  H    0.201011
 Sum of Mulliken atomic charges =   0.00000

 Dipole moment (field-independent basis, Debye):
    X=              5.8080    Y=              4.9678    Z=              2.2944  Tot=              7.9798
 Quadrupole moment (field-independent basis, Debye-Ang):
   XX=           -146.8090   YY=           -175.7132   ZZ=           -160.0411
   XY=             -3.3189   XZ=             14.1506   YZ=              1.4843

 Normal termination of Gaussian 09 at Thu Dec  5 17:02:38 2019.
