 Gaussian 09, Revision A.02,
 Gaussian 09:  EM64L-G09RevA.02 11-Jun-2009

 ---------------------------------
 #SP HF/6-31G* Geom=(ModRedundant)
 ---------------------------------

 ------------
 paramfit run
 ------------
 Symbolic Z-matrix:
 Charge =  0 Multiplicity = 1

                         Standard orientation:
 ---------------------------------------------------------------------
 Center     Atomic      Atomic             Coordinates (Angstroms)
 Number     Number       Type             X           Y           Z
 ---------------------------------------------------------------------
      1          6    20001001       -2.954587    1.070473   -2.611811
      2          7    20001014       -2.264913    0.768326   -1.374757
      3          6    20001002       -2.919560    0.870952   -0.194497
      4          8    20001024       -4.112012    0.985309   -0.125751
      5          6    90000001       -2.069242    0.695390    1.076536
      6          6    90000002       -2.815072    1.284763    2.278292
      7          6    90000002       -1.737421   -0.805974    1.294258
      8          6    90000002       -2.891811   -1.805358    1.489835
      9          6    90000002       -3.593928   -2.343067    0.227084
     10          6    20001004       -2.663645   -3.018364   -0.753133
     11          6    20001004       -1.738925   -2.449842   -1.509726
     12          6    90000002       -1.385162   -0.983732   -1.581339
     13          6    90000002       -0.101884   -0.603664   -0.820872
     14          6    90000002        1.141810   -1.321777   -1.361661
     15          6    90000002        2.526254   -0.898976   -0.805603
     16          6    90000002        3.584782   -1.803698   -1.457099
     17          7    20001014        2.773984    0.486144   -1.181903
     18          6    20001002        3.853985    1.172120   -0.706411
     19          6    20001001        3.776714    2.673202   -0.866368
     20          8    20001024        4.797044    0.631474   -0.198983
     21          6    20001002        2.482415   -0.981091    0.737141
     22          8    20001024        2.033656   -0.070396    1.379933
     23          7    20001014        2.867318   -2.142162    1.309631
     24          6    20001001        2.898903   -2.269119    2.752228
     25          7    20001014       -0.761022    1.345749    0.912149
     26          6    20001002       -0.603531    2.678395    0.669404
     27          6    20001001        0.798226    3.209958    0.885360
     28          8    20001024       -1.502992    3.378973    0.300214
     29          1    20001035       -3.224462    2.118232   -2.677525
     30          1    20001035       -3.855721    0.478973   -2.681139
     31          1    20001035       -2.305083    0.817488   -3.440362
     32          1    20001029       -1.282971    0.915220   -1.352431
     33          1    20001034       -3.786769    0.830096    2.396678
     34          1    20001034       -2.233891    1.119429    3.180584
     35          1    20001034       -2.963929    2.346374    2.145060
     36          1    20001034       -1.126068   -0.843448    2.193181
     37          1    20001034       -1.101686   -1.139539    0.480099
     38          1    20001034       -2.474345   -2.657462    2.018285
     39          1    20001034       -3.642437   -1.380891    2.148442
     40          1    20001034       -4.117178   -1.540779   -0.276807
     41          1    20001034       -4.358261   -3.037815    0.557166
     42          1    20001033       -2.776248   -4.087708   -0.830196
     43          1    20001033       -1.161096   -3.096362   -2.151509
     44          1    20001034       -2.198794   -0.381421   -1.195735
     45          1    20001034       -1.272182   -0.705820   -2.628522
     46          1    20001034        0.014807    0.474437   -0.887631
     47          1    20001034       -0.230682   -0.824653    0.230509
     48          1    20001034        1.190399   -1.196190   -2.441199
     49          1    20001034        1.035524   -2.384363   -1.177365
     50          1    20001034        3.608014   -1.599718   -2.521258
     51          1    20001034        3.335805   -2.852469   -1.332713
     52          1    20001034        4.569973   -1.616967   -1.056764
     53          1    20001029        1.960235    1.039502   -1.324449
     54          1    20001034        4.773421    3.085058   -0.821533
     55          1    20001034        3.194794    3.079162   -0.044363
     56          1    20001034        3.301209    2.960559   -1.797874
     57          1    20001029        3.442700   -2.759155    0.786596
     58          1    20001035        3.113507   -3.299457    3.003762
     59          1    20001035        1.937335   -1.998965    3.163361
     60          1    20001035        3.653932   -1.628523    3.196440
     61          1    20001029        0.006876    0.880656    1.342926
     62          1    20001034        0.917101    4.121728    0.318335
     63          1    20001034        1.558321    2.494866    0.591339
     64          1    20001034        0.934790    3.437094    1.937767
 ---------------------------------------------------------------------

 SCF Done:  E(RHF) =  -1295.26730306     A.U. after   15 cycles

 The electronic state is 1-A.
 Alpha  occ. eigenvalues --  -20.54396 -20.53481 -20.52949 -20.52778 -15.59956
 Alpha  occ. eigenvalues --  -15.59138 -15.57985 -15.57926 -11.36117 -11.35653
 Alpha  occ. eigenvalues --  -11.35170 -11.34355 -11.29871 -11.28830 -11.26707
 Alpha  occ. eigenvalues --  -11.26451 -11.24006 -11.23663 -11.23352 -11.22864
 Alpha  occ. eigenvalues --  -11.22047 -11.21797 -11.21413 -11.21050 -11.20935
 Alpha  occ. eigenvalues --  -11.20533 -11.20530 -11.16823  -1.41703  -1.40763
 Alpha  occ. eigenvalues --   -1.39968  -1.39599  -1.29460  -1.25167  -1.24683
 Alpha  occ. eigenvalues --   -1.24258  -1.11768  -1.09171  -1.06922  -1.04924
 Alpha  occ. eigenvalues --   -1.01337  -1.00199  -0.99106  -0.97724  -0.96711
 Alpha  occ. eigenvalues --   -0.95629  -0.92587  -0.88814  -0.86356  -0.85475
 Alpha  occ. eigenvalues --   -0.82480  -0.80980  -0.80788  -0.78792  -0.78604
 Alpha  occ. eigenvalues --   -0.73652  -0.73115  -0.71104  -0.70821  -0.69046
 Alpha  occ. eigenvalues --   -0.68521  -0.66873  -0.66644  -0.66318  -0.64786
 Alpha  occ. eigenvalues --   -0.63869  -0.63523  -0.62977  -0.62468  -0.62349
 Alpha  occ. eigenvalues --   -0.60545  -0.60366  -0.59943  -0.59484  -0.58734
 Alpha  occ. eigenvalues --   -0.57929  -0.57753  -0.57213  -0.56997  -0.56672
 Alpha  occ. eigenvalues --   -0.56526  -0.56108  -0.55900  -0.55597  -0.54459
 Alpha  occ. eigenvalues --   -0.54421  -0.53107  -0.52437  -0.52144  -0.51785
 Alpha  occ. eigenvalues --   -0.51554  -0.50960  -0.50625  -0.49913  -0.48625
 Alpha  occ. eigenvalues --   -0.47827  -0.46733  -0.44835  -0.43828  -0.42538
 Alpha  occ. eigenvalues --   -0.42346  -0.41739  -0.40927  -0.40558  -0.40174
 Alpha  occ. eigenvalues --   -0.38055  -0.33769  -0.27269
 Alpha virt. eigenvalues --    0.16506   0.17609   0.18047   0.19126   0.19804
 Alpha virt. eigenvalues --    0.20871   0.21475   0.23003   0.23230   0.25145
 Alpha virt. eigenvalues --    0.25936   0.26369   0.26738   0.26981   0.27688

 Mulliken atomic charges:
              1
     1  C   -0.288847
     2  N   -0.842725
     3  C    0.796718
     4  O   -0.612780
     5  C    0.105781
     6  C   -0.466525
     7  C   -0.393624
     8  C   -0.288274
     9  C   -0.369367
    10  C   -0.197698
    11  C   -0.128300
    12  C   -0.523978
    13  C   -0.384031
    14  C   -0.296938
    15  C    0.085071
    16  C   -0.510706
    17  N   -0.790552
    18  C    0.761911
    19  C   -0.603136
    20  O   -0.610511
    21  C    0.836717
    22  O   -0.670054
    23  N   -0.802411
    24  C   -0.279381
    25  N   -0.893155
    26  C    0.737909
    27  C   -0.597569
    28  O   -0.601129
    29  H    0.213153
    30  H    0.210248
    31  H    0.175127
    32  H    0.446920
    33  H    0.195596
    34  H    0.151966
    35  H    0.210786
    36  H    0.176089
    37  H    0.203009
    38  H    0.158109
    39  H    0.170628
    40  H    0.200934
    41  H    0.169793
    42  H    0.168353
    43  H    0.146944
    44  H    0.356875
    45  H    0.158778
    46  H    0.144161
    47  H    0.221942
    48  H    0.176381
    49  H    0.187608
    50  H    0.189461
    51  H    0.152860
    52  H    0.226386
    53  H    0.392117
    54  H    0.217568
    55  H    0.208983
    56  H    0.182325
    57  H    0.403286
    58  H    0.173949
    59  H    0.194304
    60  H    0.189727
    61  H    0.453011
    62  H    0.203843
    63  H    0.187216
    64  H    0.209146
 Sum of Mulliken atomic charges =   0.00000

 Dipole moment (field-independent basis, Debye):
    X=              3.8507    Y=             -3.1807    Z=             -0.9962  Tot=              5.0929
 Quadrupole moment (field-independent basis, Debye-Ang):
   XX=           -204.2878   YY=           -171.0411   ZZ=           -160.9522
   XY=              3.7331   XZ=              0.2773   YZ=             -8.2163

 Normal termination of Gaussian 09 at Thu Dec  5 18:52:51 2019.
