 Gaussian 09, Revision A.02,
 Gaussian 09:  EM64L-G09RevA.02 11-Jun-2009

 ---------------------------------
 #SP HF/6-31G* Geom=(ModRedundant)
 ---------------------------------

 ------------
 paramfit run
 ------------
 Symbolic Z-matrix:
 Charge =  0 Multiplicity = 1

                         Standard orientation:
 ---------------------------------------------------------------------
 Center     Atomic      Atomic             Coordinates (Angstroms)
 Number     Number       Type             X           Y           Z
 ---------------------------------------------------------------------
      1          6    20001001        0.017800   -0.698073    0.717516
      2          7    20001014       -1.288909   -0.452583    0.143502
      3          6    20001002       -2.308442   -0.045723    0.935414
      4          8    20001024       -2.138609    0.340427    2.058709
      5          6    90000001       -3.697715    0.029401    0.276882
      6          6    90000002       -4.779790    0.041294    1.361692
      7          6    90000002       -3.790833    1.284851   -0.632390
      8          6    90000002       -3.612687    2.678145   -0.002602
      9          6    90000002       -2.173407    3.184020    0.219209
     10          6    20001004       -1.334183    3.220305   -1.036444
     11          6    20001004       -0.014152    3.247058   -1.123397
     12          6    90000002        0.980916    3.249016    0.012205
     13          6    90000002        1.652204    1.887738    0.268834
     14          6    90000002        2.454726    1.385941   -0.939086
     15          6    90000002        3.325628    0.115758   -0.757950
     16          6    90000002        3.967875   -0.205133   -2.117362
     17          7    20001014        4.369708    0.404159    0.215833
     18          6    20001002        5.199734   -0.573864    0.682290
     19          6    20001001        5.959437   -0.219033    1.939967
     20          8    20001024        5.322532   -1.637029    0.140309
     21          6    20001002        2.435430   -1.014295   -0.192925
     22          8    20001024        2.224096   -1.086230    0.987791
     23          7    20001014        1.835059   -1.836200   -1.080625
     24          6    20001001        1.028697   -2.946695   -0.617176
     25          7    20001014       -3.894804   -1.106479   -0.635457
     26          6    20001002       -3.859233   -2.410743   -0.238847
     27          6    20001001       -4.429917   -3.400800   -1.232943
     28          8    20001024       -3.399715   -2.754188    0.813307
     29          1    20001035        0.007234   -1.541570    1.398215
     30          1    20001035        0.348520    0.175950    1.259209
     31          1    20001035        0.716202   -0.897364   -0.085522
     32          1    20001029       -1.535447   -0.970366   -0.667303
     33          1    20001034       -4.633349    0.858823    2.050992
     34          1    20001034       -5.756207    0.139987    0.896818
     35          1    20001034       -4.752075   -0.876390    1.930915
     36          1    20001034       -4.786320    1.256431   -1.069904
     37          1    20001034       -3.093412    1.166057   -1.455659
     38          1    20001034       -4.106302    3.381169   -0.667222
     39          1    20001034       -4.146491    2.729932    0.940661
     40          1    20001034       -1.675126    2.572636    0.960350
     41          1    20001034       -2.245812    4.176579    0.649811
     42          1    20001033       -1.890271    3.219742   -1.959959
     43          1    20001033        0.414445    3.266130   -2.113195
     44          1    20001034        0.503291    3.569940    0.930000
     45          1    20001034        1.750752    3.988861   -0.203610
     46          1    20001034        2.291815    1.993785    1.140628
     47          1    20001034        0.896773    1.162162    0.540299
     48          1    20001034        3.123137    2.173343   -1.280787
     49          1    20001034        1.767401    1.187465   -1.753051
     50          1    20001034        4.648543    0.597118   -2.377488
     51          1    20001034        3.220015   -0.263685   -2.901364
     52          1    20001034        4.529776   -1.126537   -2.085398
     53          1    20001029        4.148941    1.112373    0.877956
     54          1    20001034        6.827505   -0.855543    2.019813
     55          1    20001034        5.315495   -0.399264    2.795525
     56          1    20001034        6.263768    0.821925    1.953106
     57          1    20001029        2.213173   -1.900299   -1.996173
     58          1    20001035        0.544091   -3.401782   -1.470976
     59          1    20001035        0.273618   -2.588670    0.067148
     60          1    20001035        1.627688   -3.693820   -0.106522
     61          1    20001029       -4.415819   -0.908981   -1.460736
     62          1    20001034       -4.019163   -4.378478   -1.027028
     63          1    20001034       -4.215259   -3.122710   -2.258681
     64          1    20001034       -5.507460   -3.446079   -1.111902
 ---------------------------------------------------------------------

 SCF Done:  E(RHF) =  -1295.51014861     A.U. after   15 cycles

 The electronic state is 1-A.
 Alpha  occ. eigenvalues --  -20.53250 -20.52424 -20.52337 -20.50712 -15.59547
 Alpha  occ. eigenvalues --  -15.59143 -15.57870 -15.55534 -11.35590 -11.34928
 Alpha  occ. eigenvalues --  -11.34523 -11.32640 -11.29160 -11.28361 -11.25418
 Alpha  occ. eigenvalues --  -11.24142 -11.23658 -11.23557 -11.22642 -11.22538
 Alpha  occ. eigenvalues --  -11.22299 -11.22086 -11.22023 -11.21758 -11.21467
 Alpha  occ. eigenvalues --  -11.21438 -11.20757 -11.20382  -1.41218  -1.40146
 Alpha  occ. eigenvalues --   -1.38919  -1.37563  -1.24869  -1.24713  -1.23917
 Alpha  occ. eigenvalues --   -1.20506  -1.10519  -1.09205  -1.07195  -1.04107
 Alpha  occ. eigenvalues --   -1.01238  -0.99244  -0.99040  -0.96468  -0.94737
 Alpha  occ. eigenvalues --   -0.94338  -0.92034  -0.87375  -0.85891  -0.82427
 Alpha  occ. eigenvalues --   -0.81643  -0.80575  -0.78529  -0.78203  -0.75775
 Alpha  occ. eigenvalues --   -0.72600  -0.71786  -0.70846  -0.68911  -0.68329
 Alpha  occ. eigenvalues --   -0.66773  -0.66171  -0.66012  -0.64689  -0.63427
 Alpha  occ. eigenvalues --   -0.63040  -0.62223  -0.62106  -0.61726  -0.61038
 Alpha  occ. eigenvalues --   -0.60516  -0.59666  -0.59280  -0.59089  -0.58104
 Alpha  occ. eigenvalues --   -0.57849  -0.57356  -0.56800  -0.56384  -0.56241
 Alpha  occ. eigenvalues --   -0.55777  -0.55381  -0.54997  -0.53955  -0.53693
 Alpha  occ. eigenvalues --   -0.53324  -0.52891  -0.51806  -0.51501  -0.51177
 Alpha  occ. eigenvalues --   -0.50516  -0.50364  -0.48827  -0.47562  -0.47492
 Alpha  occ. eigenvalues --   -0.46873  -0.46524  -0.45076  -0.44397  -0.42470
 Alpha  occ. eigenvalues --   -0.42094  -0.41384  -0.41126  -0.40218  -0.39138
 Alpha  occ. eigenvalues --   -0.38290  -0.36397  -0.33965
 Alpha virt. eigenvalues --    0.17532   0.18202   0.19160   0.20340   0.20742
 Alpha virt. eigenvalues --    0.21105   0.21651   0.22935   0.24235   0.24642
 Alpha virt. eigenvalues --    0.25039   0.26039   0.26575   0.27098   0.27559

 Mulliken atomic charges:
              1
     1  C   -0.299560
     2  N   -0.803820
     3  C    0.827853
     4  O   -0.634804
     5  C    0.104518
     6  C   -0.472441
     7  C   -0.330932
     8  C   -0.329599
     9  C   -0.359691
    10  C   -0.164191
    11  C   -0.182462
    12  C   -0.349567
    13  C   -0.303904
    14  C   -0.333897
    15  C    0.105248
    16  C   -0.509956
    17  N   -0.787197
    18  C    0.767629
    19  C   -0.595941
    20  O   -0.614689
    21  C    0.769757
    22  O   -0.623243
    23  N   -0.813108
    24  C   -0.297732
    25  N   -0.841140
    26  C    0.743978
    27  C   -0.588284
    28  O   -0.591172
    29  H    0.206074
    30  H    0.222321
    31  H    0.179949
    32  H    0.381956
    33  H    0.197143
    34  H    0.140882
    35  H    0.212202
    36  H    0.157917
    37  H    0.182465
    38  H    0.160015
    39  H    0.184864
    40  H    0.215767
    41  H    0.175648
    42  H    0.163926
    43  H    0.167081
    44  H    0.183638
    45  H    0.158953
    46  H    0.149291
    47  H    0.184008
    48  H    0.176776
    49  H    0.181351
    50  H    0.188371
    51  H    0.146147
    52  H    0.227306
    53  H    0.392814
    54  H    0.211928
    55  H    0.211244
    56  H    0.177970
    57  H    0.405700
    58  H    0.166336
    59  H    0.227715
    60  H    0.197514
    61  H    0.380061
    62  H    0.216741
    63  H    0.175220
    64  H    0.201053
 Sum of Mulliken atomic charges =   0.00000

 Dipole moment (field-independent basis, Debye):
    X=             -1.9820    Y=              1.8459    Z=             -7.0550  Tot=              7.5571
 Quadrupole moment (field-independent basis, Debye-Ang):
   XX=           -159.2714   YY=           -173.4588   ZZ=           -172.3063
   XY=             14.8861   XZ=             19.2163   YZ=             13.7958

 Normal termination of Gaussian 09 at Thu Dec  5 17:20:14 2019.
