 Gaussian 09, Revision A.02,
 Gaussian 09:  EM64L-G09RevA.02 11-Jun-2009

 ---------------------------------
 #SP HF/6-31G* Geom=(ModRedundant)
 ---------------------------------

 ------------
 paramfit run
 ------------
 Symbolic Z-matrix:
 Charge =  0 Multiplicity = 1

                         Standard orientation:
 ---------------------------------------------------------------------
 Center     Atomic      Atomic             Coordinates (Angstroms)
 Number     Number       Type             X           Y           Z
 ---------------------------------------------------------------------
      1          6    20001001        1.863916   -2.170573   -0.031707
      2          7    20001014        2.844814   -1.145804    0.259721
      3          6    20001002        3.408042   -0.443547   -0.751079
      4          8    20001024        2.977771   -0.466481   -1.870939
      5          6    90000001        4.557970    0.504886   -0.366987
      6          6    90000002        5.374291    0.853673   -1.615911
      7          6    90000002        3.993371    1.779574    0.317118
      8          6    90000002        3.025980    2.682915   -0.468864
      9          6    90000002        1.538853    2.278162   -0.504395
     10          6    20001004        0.907636    2.136044    0.860760
     11          6    20001004       -0.357121    2.343258    1.189710
     12          6    90000002       -1.483296    2.774528    0.281144
     13          6    90000002       -2.432350    1.636504   -0.135705
     14          6    90000002       -3.137762    0.985076    1.061354
     15          6    90000002       -4.252603   -0.053431    0.772780
     16          6    90000002       -4.746320   -0.593126    2.124972
     17          7    20001014       -5.348684    0.620275    0.089948
     18          6    20001002       -6.408047   -0.075242   -0.417065
     19          6    20001001       -7.255195    0.687534   -1.409698
     20          8    20001024       -6.654676   -1.206507   -0.103130
     21          6    20001002       -3.684147   -1.134777   -0.173937
     22          8    20001024       -3.659068   -0.948599   -1.360798
     23          7    20001014       -3.133408   -2.230274    0.392238
     24          6    20001001       -2.628319   -3.304749   -0.437575
     25          7    20001014        5.415812   -0.116008    0.652830
     26          6    20001002        6.089078   -1.286893    0.464642
     27          6    20001001        7.179666   -1.571204    1.476523
     28          8    20001024        5.831727   -2.044387   -0.427610
     29          1    20001035        2.299103   -3.003303   -0.572191
     30          1    20001035        1.066379   -1.753155   -0.628717
     31          1    20001035        1.450899   -2.529429    0.902634
     32          1    20001029        3.391441   -1.258159    1.081221
     33          1    20001034        4.750926    1.290905   -2.380879
     34          1    20001034        6.156979    1.558164   -1.350713
     35          1    20001034        5.826641   -0.035505   -2.030239
     36          1    20001034        4.861050    2.384477    0.570978
     37          1    20001034        3.537518    1.491398    1.259155
     38          1    20001034        3.085021    3.666760   -0.012595
     39          1    20001034        3.376104    2.802576   -1.488897
     40          1    20001034        1.419699    1.349768   -1.047764
     41          1    20001034        1.015657    3.032125   -1.082009
     42          1    20001033        1.577808    1.825188    1.645840
     43          1    20001033       -0.630265    2.186320    2.221468
     44          1    20001034       -1.087229    3.231998   -0.617365
     45          1    20001034       -2.058837    3.548741    0.787048
     46          1    20001034       -3.156144    2.048612   -0.833317
     47          1    20001034       -1.875909    0.891720   -0.689328
     48          1    20001034       -3.587934    1.758597    1.679854
     49          1    20001034       -2.393485    0.491207    1.674946
     50          1    20001034       -5.217050    0.216363    2.670612
     51          1    20001034       -3.920657   -0.954998    2.728884
     52          1    20001034       -5.473170   -1.381415    1.998366
     53          1    20001029       -5.091851    1.425829   -0.433341
     54          1    20001034       -8.231574    0.230764   -1.465425
     55          1    20001034       -6.784852    0.624367   -2.386383
     56          1    20001034       -7.353157    1.734358   -1.143346
     57          1    20001029       -3.383920   -2.456535    1.325705
     58          1    20001035       -2.124505   -4.022923    0.195921
     59          1    20001035       -1.922749   -2.911223   -1.154467
     60          1    20001035       -3.425259   -3.803871   -0.979348
     61          1    20001029        5.790593    0.505247    1.334834
     62          1    20001034        7.372859   -2.633936    1.492341
     63          1    20001034        6.914474   -1.232983    2.471928
     64          1    20001034        8.087758   -1.059245    1.174750
 ---------------------------------------------------------------------

 SCF Done:  E(RHF) =  -1295.61899311     A.U. after   14 cycles

 The electronic state is 1-A.
 Alpha  occ. eigenvalues --  -20.53654 -20.51935 -20.51730 -20.51482 -15.59635
 Alpha  occ. eigenvalues --  -15.57849 -15.57401 -15.57348 -11.35979 -11.34140
 Alpha  occ. eigenvalues --  -11.33759 -11.33576 -11.29060 -11.28456 -11.24964
 Alpha  occ. eigenvalues --  -11.24731 -11.24377 -11.24181 -11.23250 -11.22795
 Alpha  occ. eigenvalues --  -11.22390 -11.22297 -11.22204 -11.22140 -11.21909
 Alpha  occ. eigenvalues --  -11.21733 -11.21675 -11.20879  -1.40585  -1.39255
 Alpha  occ. eigenvalues --   -1.38593  -1.37980  -1.25441  -1.23430  -1.22557
 Alpha  occ. eigenvalues --   -1.21927  -1.10684  -1.09262  -1.07120  -1.04233
 Alpha  occ. eigenvalues --   -1.01226  -0.99332  -0.98651  -0.95390  -0.95070
 Alpha  occ. eigenvalues --   -0.94538  -0.92157  -0.87116  -0.85662  -0.82721
 Alpha  occ. eigenvalues --   -0.81337  -0.79403  -0.78782  -0.77046  -0.76793
 Alpha  occ. eigenvalues --   -0.72231  -0.71276  -0.71121  -0.68913  -0.67914
 Alpha  occ. eigenvalues --   -0.66361  -0.65657  -0.64357  -0.64128  -0.63704
 Alpha  occ. eigenvalues --   -0.62526  -0.62092  -0.61679  -0.61331  -0.60995
 Alpha  occ. eigenvalues --   -0.60808  -0.59823  -0.59183  -0.58959  -0.58484
 Alpha  occ. eigenvalues --   -0.57966  -0.57763  -0.57164  -0.56204  -0.56014
 Alpha  occ. eigenvalues --   -0.55580  -0.54904  -0.54644  -0.54400  -0.53873
 Alpha  occ. eigenvalues --   -0.52989  -0.52796  -0.52454  -0.52068  -0.51510
 Alpha  occ. eigenvalues --   -0.51071  -0.50503  -0.49686  -0.48700  -0.48458
 Alpha  occ. eigenvalues --   -0.48121  -0.47556  -0.46100  -0.44482  -0.42846
 Alpha  occ. eigenvalues --   -0.41944  -0.41384  -0.40950  -0.39252  -0.38743
 Alpha  occ. eigenvalues --   -0.38211  -0.38186  -0.34219
 Alpha virt. eigenvalues --    0.17912   0.18784   0.19744   0.19996   0.20227
 Alpha virt. eigenvalues --    0.21695   0.21938   0.23257   0.23337   0.23976
 Alpha virt. eigenvalues --    0.24455   0.25510   0.25799   0.26943   0.27352

 Mulliken atomic charges:
              1
     1  C   -0.279028
     2  N   -0.781431
     3  C    0.822850
     4  O   -0.628438
     5  C    0.104407
     6  C   -0.472860
     7  C   -0.337982
     8  C   -0.326134
     9  C   -0.366135
    10  C   -0.161832
    11  C   -0.185246
    12  C   -0.352946
    13  C   -0.310267
    14  C   -0.328639
    15  C    0.091116
    16  C   -0.509288
    17  N   -0.787653
    18  C    0.767310
    19  C   -0.595726
    20  O   -0.614288
    21  C    0.820321
    22  O   -0.637506
    23  N   -0.806950
    24  C   -0.276870
    25  N   -0.843292
    26  C    0.744578
    27  C   -0.588645
    28  O   -0.591159
    29  H    0.185167
    30  H    0.201886
    31  H    0.159937
    32  H    0.389820
    33  H    0.198861
    34  H    0.143795
    35  H    0.213157
    36  H    0.163029
    37  H    0.178469
    38  H    0.166469
    39  H    0.184540
    40  H    0.221215
    41  H    0.173271
    42  H    0.168642
    43  H    0.168784
    44  H    0.178301
    45  H    0.158985
    46  H    0.151504
    47  H    0.200687
    48  H    0.173269
    49  H    0.183222
    50  H    0.183711
    51  H    0.147079
    52  H    0.226401
    53  H    0.390253
    54  H    0.210854
    55  H    0.210023
    56  H    0.176370
    57  H    0.394706
    58  H    0.162492
    59  H    0.201583
    60  H    0.186223
    61  H    0.382034
    62  H    0.218763
    63  H    0.176852
    64  H    0.201378
 Sum of Mulliken atomic charges =   0.00000

 Dipole moment (field-independent basis, Debye):
    X=              3.7174    Y=              3.6435    Z=              6.9863  Tot=              8.7122
 Quadrupole moment (field-independent basis, Debye-Ang):
   XX=           -164.9778   YY=           -166.6393   ZZ=           -174.3691
   XY=             -3.4770   XZ=             19.8812   YZ=            -12.6772

 Normal termination of Gaussian 09 at Thu Dec  5 17:53:15 2019.
