 Gaussian 09, Revision A.02,
 Gaussian 09:  EM64L-G09RevA.02 11-Jun-2009

 ---------------------------------
 #SP HF/6-31G* Geom=(ModRedundant)
 ---------------------------------

 ------------
 paramfit run
 ------------
 Symbolic Z-matrix:
 Charge =  0 Multiplicity = 1

                         Standard orientation:
 ---------------------------------------------------------------------
 Center     Atomic      Atomic             Coordinates (Angstroms)
 Number     Number       Type             X           Y           Z
 ---------------------------------------------------------------------
      1          6    20001001       -4.033527    2.914312    0.712376
      2          7    20001014       -4.266146    1.486526    0.644819
      3          6    20001002       -4.423310    0.884348   -0.557175
      4          8    20001024       -4.159531    1.430985   -1.592237
      5          6    90000001       -4.831798   -0.599500   -0.530331
      6          6    90000002       -5.411174   -0.996909   -1.892033
      7          6    90000002       -3.611790   -1.482795   -0.152214
      8          6    90000002       -2.367800   -1.465900   -1.058767
      9          6    90000002       -1.354559   -0.320892   -0.861450
     10          6    20001004       -0.807310   -0.219497    0.543012
     11          6    20001004        0.267942   -0.813943    1.034160
     12          6    90000002        1.214346   -1.742527    0.311798
     13          6    90000002        2.540656   -1.088529   -0.115700
     14          6    90000002        3.355080   -0.567095    1.075826
     15          6    90000002        4.790096   -0.045700    0.804670
     16          6    90000002        5.356790    0.469975    2.137482
     17          7    20001014        5.604504   -1.155303    0.328168
     18          6    20001002        6.876470   -0.962121   -0.127727
     19          6    20001001        7.447765   -2.109609   -0.928788
     20          8    20001024        7.500245    0.039772    0.087353
     21          6    20001002        4.723017    1.020274   -0.312434
     22          8    20001024        4.710022    0.687962   -1.467132
     23          7    20001014        4.577256    2.308793    0.064999
     24          6    20001001        4.558682    3.362550   -0.928707
     25          7    20001014       -5.812398   -0.842143    0.537835
     26          6    20001002       -7.029630   -0.230558    0.600947
     27          6    20001001       -8.019756   -0.866097    1.554812
     28          8    20001024       -7.296541    0.745880   -0.040510
     29          1    20001035       -4.892609    3.479514    0.369632
     30          1    20001035       -3.183966    3.175124    0.098418
     31          1    20001035       -3.818441    3.181270    1.739423
     32          1    20001029       -4.722891    1.061799    1.417655
     33          1    20001034       -4.708012   -0.803245   -2.687640
     34          1    20001034       -5.656562   -2.054726   -1.885329
     35          1    20001034       -6.306321   -0.429220   -2.100281
     36          1    20001034       -3.983452   -2.504992   -0.138021
     37          1    20001034       -3.321667   -1.250595    0.867684
     38          1    20001034       -1.843358   -2.399714   -0.878292
     39          1    20001034       -2.668136   -1.485863   -2.101252
     40          1    20001034       -1.804870    0.624521   -1.134905
     41          1    20001034       -0.547176   -0.482859   -1.566953
     42          1    20001033       -1.366783    0.418022    1.208349
     43          1    20001033        0.510587   -0.619015    2.067062
     44          1    20001034        0.738375   -2.152294   -0.570816
     45          1    20001034        1.430119   -2.590220    0.960993
     46          1    20001034        3.106855   -1.826170   -0.677554
     47          1    20001034        2.334949   -0.281620   -0.806649
     48          1    20001034        3.447344   -1.353486    1.821890
     49          1    20001034        2.805506    0.241365    1.543489
     50          1    20001034        5.459734   -0.367341    2.817838
     51          1    20001034        4.683843    1.184095    2.600683
     52          1    20001034        6.329180    0.921402    2.009376
     53          1    20001029        5.104866   -1.882589   -0.130229
     54          1    20001034        8.525072   -2.043049   -0.922491
     55          1    20001034        7.099443   -2.023227   -1.953646
     56          1    20001034        7.136202   -3.073344   -0.540813
     57          1    20001029        4.830904    2.561780    0.990726
     58          1    20001035        4.313294    4.295472   -0.438439
     59          1    20001035        3.807064    3.147861   -1.674098
     60          1    20001035        5.517332    3.462746   -1.427408
     61          1    20001029       -5.733430   -1.719551    1.002020
     62          1    20001034       -8.763008   -0.131099    1.827443
     63          1    20001034       -7.540498   -1.250194    2.448306
     64          1    20001034       -8.516710   -1.691192    1.054756
 ---------------------------------------------------------------------

 SCF Done:  E(RHF) =  -1295.62189551     A.U. after   14 cycles

 The electronic state is 1-A.
 Alpha  occ. eigenvalues --  -20.53640 -20.52066 -20.51846 -20.51607 -15.59594
 Alpha  occ. eigenvalues --  -15.57909 -15.57543 -15.57532 -11.35958 -11.34274
 Alpha  occ. eigenvalues --  -11.33856 -11.33693 -11.29006 -11.28586 -11.24986
 Alpha  occ. eigenvalues --  -11.24918 -11.24352 -11.23960 -11.23423 -11.22691
 Alpha  occ. eigenvalues --  -11.22607 -11.22536 -11.22394 -11.22228 -11.22013
 Alpha  occ. eigenvalues --  -11.21821 -11.21582 -11.20838  -1.40577  -1.39384
 Alpha  occ. eigenvalues --   -1.38704  -1.38107  -1.25418  -1.23569  -1.22622
 Alpha  occ. eigenvalues --   -1.22080  -1.10789  -1.09255  -1.07195  -1.04223
 Alpha  occ. eigenvalues --   -1.01225  -0.99314  -0.98750  -0.95526  -0.95153
 Alpha  occ. eigenvalues --   -0.94593  -0.92196  -0.87296  -0.85706  -0.82852
 Alpha  occ. eigenvalues --   -0.81335  -0.79509  -0.78747  -0.77178  -0.76889
 Alpha  occ. eigenvalues --   -0.71889  -0.71302  -0.71087  -0.68945  -0.67986
 Alpha  occ. eigenvalues --   -0.66764  -0.65815  -0.64548  -0.63915  -0.63682
 Alpha  occ. eigenvalues --   -0.62611  -0.62389  -0.61793  -0.61435  -0.61176
 Alpha  occ. eigenvalues --   -0.60914  -0.59911  -0.59359  -0.58726  -0.58467
 Alpha  occ. eigenvalues --   -0.58266  -0.57802  -0.56496  -0.56433  -0.56236
 Alpha  occ. eigenvalues --   -0.55468  -0.54855  -0.54765  -0.54570  -0.54019
 Alpha  occ. eigenvalues --   -0.53138  -0.52828  -0.52425  -0.52167  -0.51541
 Alpha  occ. eigenvalues --   -0.51018  -0.50320  -0.49787  -0.49375  -0.48573
 Alpha  occ. eigenvalues --   -0.48328  -0.46929  -0.46327  -0.44559  -0.42865
 Alpha  occ. eigenvalues --   -0.41921  -0.41522  -0.41081  -0.39277  -0.38853
 Alpha  occ. eigenvalues --   -0.38321  -0.38293  -0.34521
 Alpha virt. eigenvalues --    0.17163   0.18811   0.19635   0.20002   0.20257
 Alpha virt. eigenvalues --    0.21575   0.21958   0.23143   0.23150   0.23906
 Alpha virt. eigenvalues --    0.25370   0.25640   0.26566   0.27051   0.27593

 Mulliken atomic charges:
              1
     1  C   -0.279802
     2  N   -0.783197
     3  C    0.821807
     4  O   -0.628365
     5  C    0.102155
     6  C   -0.472769
     7  C   -0.333490
     8  C   -0.311663
     9  C   -0.373524
    10  C   -0.183061
    11  C   -0.175796
    12  C   -0.353854
    13  C   -0.310608
    14  C   -0.329147
    15  C    0.091036
    16  C   -0.509625
    17  N   -0.787613
    18  C    0.767305
    19  C   -0.595694
    20  O   -0.613800
    21  C    0.820591
    22  O   -0.639455
    23  N   -0.805909
    24  C   -0.275573
    25  N   -0.843032
    26  C    0.744579
    27  C   -0.588676
    28  O   -0.591861
    29  H    0.187150
    30  H    0.197787
    31  H    0.162257
    32  H    0.391496
    33  H    0.198897
    34  H    0.144050
    35  H    0.212404
    36  H    0.160783
    37  H    0.183513
    38  H    0.164063
    39  H    0.179484
    40  H    0.213064
    41  H    0.176304
    42  H    0.181727
    43  H    0.169893
    44  H    0.177015
    45  H    0.160126
    46  H    0.151107
    47  H    0.199467
    48  H    0.173063
    49  H    0.185330
    50  H    0.183472
    51  H    0.148505
    52  H    0.226687
    53  H    0.389709
    54  H    0.211236
    55  H    0.209476
    56  H    0.176219
    57  H    0.395367
    58  H    0.165053
    59  H    0.199613
    60  H    0.184991
    61  H    0.382626
    62  H    0.218565
    63  H    0.177211
    64  H    0.201331
 Sum of Mulliken atomic charges =   0.00000

 Dipole moment (field-independent basis, Debye):
    X=             -2.4903    Y=             -4.5916    Z=              6.2280  Tot=              8.1285
 Quadrupole moment (field-independent basis, Debye-Ang):
   XX=           -199.7806   YY=           -154.6274   ZZ=           -172.9187
   XY=             16.9119   XZ=            -17.0096   YZ=              9.5801

 Normal termination of Gaussian 09 at Thu Dec  5 17:20:35 2019.
