 Gaussian 09, Revision A.02,
 Gaussian 09:  EM64L-G09RevA.02 11-Jun-2009

 ---------------------------------
 #SP HF/6-31G* Geom=(ModRedundant)
 ---------------------------------

 ------------
 paramfit run
 ------------
 Symbolic Z-matrix:
 Charge =  0 Multiplicity = 1

                         Standard orientation:
 ---------------------------------------------------------------------
 Center     Atomic      Atomic             Coordinates (Angstroms)
 Number     Number       Type             X           Y           Z
 ---------------------------------------------------------------------
      1          6    20001001       -4.773993    2.791318    1.233305
      2          7    20001014       -4.596578    1.393212    0.900031
      3          6    20001002       -4.625754    0.998898   -0.394485
      4          8    20001024       -4.569068    1.775768   -1.307176
      5          6    90000001       -4.597264   -0.519155   -0.647642
      6          6    90000002       -5.095379   -0.812124   -2.066759
      7          6    90000002       -3.163276   -1.071426   -0.423416
      8          6    90000002       -2.012338   -0.537199   -1.294955
      9          6    90000002       -1.356475    0.793656   -0.876260
     10          6    20001004       -0.803852    0.791086    0.529756
     11          6    20001004        0.131865   -0.001479    1.026777
     12          6    90000002        0.878782   -1.101285    0.311029
     13          6    90000002        2.309112   -0.723146   -0.114096
     14          6    90000002        3.207009   -0.367423    1.078447
     15          6    90000002        4.717359   -0.140052    0.810512
     16          6    90000002        5.370856    0.259411    2.143486
     17          7    20001014        5.298529   -1.390306    0.340792
     18          6    20001002        6.584879   -1.453361   -0.111298
     19          6    20001001        6.921133   -2.694215   -0.906295
     20          8    20001024        7.393205   -0.593093    0.102447
     21          6    20001002        4.864673    0.913608   -0.310570
     22          8    20001024        4.789654    0.585582   -1.464129
     23          7    20001014        4.974564    2.207146    0.061807
     24          6    20001001        5.166683    3.239785   -0.935664
     25          7    20001014       -5.425489   -1.220071    0.344422
     26          6    20001002       -6.762283   -1.002559    0.503612
     27          6    20001001       -7.493330   -2.055375    1.310623
     28          8    20001024       -7.319692   -0.043456    0.050230
     29          1    20001035       -5.770810    3.140585    0.989756
     30          1    20001035       -4.058148    3.389881    0.689236
     31          1    20001035       -4.601724    2.918205    2.294708
     32          1    20001029       -4.883226    0.723536    1.575051
     33          1    20001034       -4.508233   -0.285638   -2.803648
     34          1    20001034       -5.031656   -1.879024   -2.258853
     35          1    20001034       -6.122034   -0.495108   -2.178150
     36          1    20001034       -3.230336   -2.142125   -0.603212
     37          1    20001034       -2.909563   -0.954587    0.625516
     38          1    20001034       -1.238748   -1.299460   -1.283343
     39          1    20001034       -2.336672   -0.453073   -2.326994
     40          1    20001034       -2.066043    1.604767   -0.976132
     41          1    20001034       -0.565393    0.998771   -1.588967
     42          1    20001033       -1.228604    1.529076    1.190868
     43          1    20001033        0.405304    0.146112    2.059835
     44          1    20001034        0.333851   -1.412920   -0.571808
     45          1    20001034        0.921540   -1.972173    0.963961
     46          1    20001034        2.720449   -1.560190   -0.671351
     47          1    20001034        2.268304    0.105603   -0.808603
     48          1    20001034        3.140487   -1.153479    1.827597
     49          1    20001034        2.826181    0.535388    1.541321
     50          1    20001034        5.304955   -0.578949    2.827146
     51          1    20001034        4.850502    1.094015    2.601796
     52          1    20001034        6.413471    0.509910    2.017216
     53          1    20001029        4.666675   -2.006815   -0.116798
     54          1    20001034        7.990420   -2.841149   -0.896439
     55          1    20001034        6.599483   -2.545164   -1.932672
     56          1    20001034        6.424752   -3.576077   -0.516029
     57          1    20001029        5.270525    2.409048    0.987525
     58          1    20001035        5.108537    4.204790   -0.449552
     59          1    20001035        4.389562    3.174272   -1.682936
     60          1    20001035        6.127659    3.147107   -1.431335
     61          1    20001029       -5.083336   -2.107447    0.639455
     62          1    20001034       -8.402210   -1.624532    1.704684
     63          1    20001034       -6.889446   -2.441949    2.123910
     64          1    20001034       -7.756896   -2.883251    0.660273
 ---------------------------------------------------------------------

 SCF Done:  E(RHF) =  -1295.61507689     A.U. after   14 cycles

 The electronic state is 1-A.
 Alpha  occ. eigenvalues --  -20.53571 -20.52176 -20.51758 -20.51737 -15.59510
 Alpha  occ. eigenvalues --  -15.58031 -15.57661 -15.57392 -11.35891 -11.34384
 Alpha  occ. eigenvalues --  -11.33819 -11.33763 -11.28896 -11.28701 -11.25112
 Alpha  occ. eigenvalues --  -11.24876 -11.24303 -11.23784 -11.23544 -11.22690
 Alpha  occ. eigenvalues --  -11.22646 -11.22567 -11.22561 -11.22305 -11.22130
 Alpha  occ. eigenvalues --  -11.21920 -11.21658 -11.20761  -1.40506  -1.39502
 Alpha  occ. eigenvalues --   -1.38620  -1.38227  -1.25327  -1.23686  -1.22744
 Alpha  occ. eigenvalues --   -1.21965  -1.11025  -1.09221  -1.07243  -1.04212
 Alpha  occ. eigenvalues --   -1.01211  -0.99290  -0.98819  -0.95459  -0.95325
 Alpha  occ. eigenvalues --   -0.94720  -0.92313  -0.87484  -0.85719  -0.82921
 Alpha  occ. eigenvalues --   -0.81289  -0.79622  -0.78635  -0.77065  -0.77009
 Alpha  occ. eigenvalues --   -0.72129  -0.71512  -0.71023  -0.68925  -0.68031
 Alpha  occ. eigenvalues --   -0.67083  -0.65590  -0.64597  -0.63888  -0.63386
 Alpha  occ. eigenvalues --   -0.62876  -0.62403  -0.61888  -0.61543  -0.61248
 Alpha  occ. eigenvalues --   -0.60806  -0.59977  -0.59473  -0.58821  -0.58727
 Alpha  occ. eigenvalues --   -0.58099  -0.57775  -0.56659  -0.56388  -0.56047
 Alpha  occ. eigenvalues --   -0.55604  -0.55056  -0.54859  -0.54581  -0.54448
 Alpha  occ. eigenvalues --   -0.53399  -0.52842  -0.52278  -0.52211  -0.51585
 Alpha  occ. eigenvalues --   -0.50980  -0.50506  -0.49886  -0.49497  -0.48733
 Alpha  occ. eigenvalues --   -0.48211  -0.47489  -0.45416  -0.44584  -0.42810
 Alpha  occ. eigenvalues --   -0.41773  -0.41638  -0.41189  -0.39188  -0.38973
 Alpha  occ. eigenvalues --   -0.38421  -0.38239  -0.34584
 Alpha virt. eigenvalues --    0.16858   0.18883   0.19518   0.20138   0.20322
 Alpha virt. eigenvalues --    0.21457   0.21864   0.22998   0.23170   0.24254
 Alpha virt. eigenvalues --    0.25311   0.25892   0.26603   0.26737   0.27479

 Mulliken atomic charges:
              1
     1  C   -0.279476
     2  N   -0.781575
     3  C    0.821829
     4  O   -0.629892
     5  C    0.102272
     6  C   -0.472515
     7  C   -0.330554
     8  C   -0.320732
     9  C   -0.366480
    10  C   -0.187255
    11  C   -0.175248
    12  C   -0.356865
    13  C   -0.307292
    14  C   -0.329392
    15  C    0.090945
    16  C   -0.509715
    17  N   -0.787603
    18  C    0.767321
    19  C   -0.595699
    20  O   -0.613573
    21  C    0.820469
    22  O   -0.639800
    23  N   -0.805880
    24  C   -0.275472
    25  N   -0.842840
    26  C    0.744666
    27  C   -0.588656
    28  O   -0.592113
    29  H    0.186969
    30  H    0.195641
    31  H    0.162387
    32  H    0.391565
    33  H    0.198461
    34  H    0.143605
    35  H    0.211973
    36  H    0.158182
    37  H    0.188050
    38  H    0.163505
    39  H    0.180834
    40  H    0.212555
    41  H    0.180987
    42  H    0.182305
    43  H    0.171115
    44  H    0.177249
    45  H    0.158319
    46  H    0.150559
    47  H    0.198480
    48  H    0.172987
    49  H    0.185701
    50  H    0.183539
    51  H    0.148854
    52  H    0.226868
    53  H    0.389463
    54  H    0.211520
    55  H    0.209340
    56  H    0.176076
    57  H    0.395687
    58  H    0.165476
    59  H    0.198716
    60  H    0.185252
    61  H    0.382326
    62  H    0.218372
    63  H    0.177146
    64  H    0.201063
 Sum of Mulliken atomic charges =   0.00000

 Dipole moment (field-independent basis, Debye):
    X=             -1.1612    Y=             -4.6479    Z=              5.4270  Tot=              7.2390
 Quadrupole moment (field-independent basis, Debye-Ang):
   XX=           -217.5199   YY=           -151.6813   ZZ=           -171.2008
   XY=             24.5809   XZ=            -12.5280   YZ=              8.7710

 Normal termination of Gaussian 09 at Thu Dec  5 17:04:09 2019.
