 Gaussian 09, Revision A.02,
 Gaussian 09:  EM64L-G09RevA.02 11-Jun-2009

 ---------------------------------
 #SP HF/6-31G* Geom=(ModRedundant)
 ---------------------------------

 ------------
 paramfit run
 ------------
 Symbolic Z-matrix:
 Charge =  0 Multiplicity = 1

                         Standard orientation:
 ---------------------------------------------------------------------
 Center     Atomic      Atomic             Coordinates (Angstroms)
 Number     Number       Type             X           Y           Z
 ---------------------------------------------------------------------
      1          6    20001001        1.058781   -1.676267   -0.254496
      2          7    20001014        2.222794   -0.907091    0.133691
      3          6    20001002        2.957749   -0.272505   -0.809310
      4          8    20001024        2.573064   -0.125156   -1.936275
      5          6    90000001        4.267399    0.379782   -0.331058
      6          6    90000002        5.183521    0.632502   -1.533012
      7          6    90000002        3.960400    1.694781    0.435839
      8          6    90000002        3.234627    2.836110   -0.299184
      9          6    90000002        1.697838    2.761301   -0.395712
     10          6    20001004        1.001969    2.662416    0.941549
     11          6    20001004       -0.294329    2.766629    1.185485
     12          6    90000002       -1.399768    3.011498    0.186585
     13          6    90000002       -2.208736    1.755359   -0.183888
     14          6    90000002       -2.919467    1.130850    1.024318
     15          6    90000002       -3.910412   -0.033286    0.764583
     16          6    90000002       -4.430847   -0.513780    2.129034
     17          7    20001014       -5.022750    0.472506   -0.028140
     18          6    20001002       -5.978217   -0.362688   -0.530724
     19          6    20001001       -6.833064    0.232495   -1.626078
     20          8    20001024       -6.133965   -1.485357   -0.137665
     21          6    20001002       -3.185081   -1.122044   -0.058355
     22          8    20001024       -3.106427   -1.026425   -1.253595
     23          7    20001014       -2.567204   -2.109880    0.624572
     24          6    20001001       -1.912540   -3.189151   -0.085915
     25          7    20001014        4.937372   -0.479210    0.656211
     26          6    20001002        5.354527   -1.750740    0.393787
     27          6    20001001        6.323209   -2.330812    1.403386
     28          8    20001024        4.975401   -2.371947   -0.558318
     29          1    20001035        1.327521   -2.542969   -0.847418
     30          1    20001035        0.389475   -1.057851   -0.834422
     31          1    20001035        0.545831   -2.002918    0.641347
     32          1    20001029        2.703335   -1.190332    0.955360
     33          1    20001034        4.694591    1.244771   -2.275310
     34          1    20001034        6.087235    1.133660   -1.199276
     35          1    20001034        5.452549   -0.301649   -2.004087
     36          1    20001034        4.926510    2.081552    0.752477
     37          1    20001034        3.420257    1.445609    1.343825
     38          1    20001034        3.483593    3.750534    0.231347
     39          1    20001034        3.638725    2.949040   -1.299846
     40          1    20001034        1.405010    1.919797   -1.010111
     41          1    20001034        1.366874    3.647827   -0.925211
     42          1    20001033        1.650255    2.481778    1.783696
     43          1    20001033       -0.612906    2.663195    2.210947
     44          1    20001034       -0.995841    3.435649   -0.724680
     45          1    20001034       -2.076182    3.760866    0.595859
     46          1    20001034       -2.925260    2.037813   -0.950171
     47          1    20001034       -1.551238    1.029588   -0.644086
     48          1    20001034       -3.478037    1.900780    1.552276
     49          1    20001034       -2.169706    0.762860    1.714821
     50          1    20001034       -5.008891    0.284149    2.580427
     51          1    20001034       -3.612266   -0.743423    2.803250
     52          1    20001034       -5.069990   -1.378333    2.030131
     53          1    20001029       -4.813082    1.256948   -0.602076
     54          1    20001034       -7.756124   -0.322732   -1.694939
     55          1    20001034       -6.300818    0.141599   -2.568191
     56          1    20001034       -7.046601    1.281653   -1.452718
     57          1    20001029       -2.850738   -2.287397    1.559134
     58          1    20001035       -1.381441   -3.802201    0.630343
     59          1    20001035       -1.205926   -2.783407   -0.794924
     60          1    20001035       -2.623960   -3.805916   -0.625578
     61          1    20001029        5.410021   -0.001181    1.390812
     62          1    20001034        6.286912   -3.408760    1.342688
     63          1    20001034        6.099657   -2.013929    2.415888
     64          1    20001034        7.329229   -2.004566    1.159896
 ---------------------------------------------------------------------

 SCF Done:  E(RHF) =  -1295.61603105     A.U. after   14 cycles

 The electronic state is 1-A.
 Alpha  occ. eigenvalues --  -20.53594 -20.51975 -20.51640 -20.51590 -15.59572
 Alpha  occ. eigenvalues --  -15.58056 -15.57447 -15.57137 -11.35923 -11.34175
 Alpha  occ. eigenvalues --  -11.33719 -11.33618 -11.28983 -11.28534 -11.25080
 Alpha  occ. eigenvalues --  -11.24456 -11.24341 -11.24140 -11.23298 -11.22814
 Alpha  occ. eigenvalues --  -11.22400 -11.22285 -11.22193 -11.22160 -11.21844
 Alpha  occ. eigenvalues --  -11.21807 -11.21667 -11.20822  -1.40521  -1.39347
 Alpha  occ. eigenvalues --   -1.38456  -1.38079  -1.25364  -1.23486  -1.22746
 Alpha  occ. eigenvalues --   -1.21751  -1.10661  -1.09260  -1.07126  -1.04237
 Alpha  occ. eigenvalues --   -1.01221  -0.99312  -0.98696  -0.95572  -0.94891
 Alpha  occ. eigenvalues --   -0.94603  -0.92150  -0.87028  -0.85761  -0.82614
 Alpha  occ. eigenvalues --   -0.81368  -0.79486  -0.78736  -0.76944  -0.76866
 Alpha  occ. eigenvalues --   -0.72362  -0.71334  -0.71070  -0.68877  -0.67942
 Alpha  occ. eigenvalues --   -0.66241  -0.65598  -0.64256  -0.64060  -0.63817
 Alpha  occ. eigenvalues --   -0.62550  -0.62272  -0.61669  -0.61398  -0.61288
 Alpha  occ. eigenvalues --   -0.60545  -0.59717  -0.59207  -0.59036  -0.58490
 Alpha  occ. eigenvalues --   -0.57908  -0.57666  -0.57216  -0.56212  -0.55980
 Alpha  occ. eigenvalues --   -0.55465  -0.55187  -0.54729  -0.54211  -0.53731
 Alpha  occ. eigenvalues --   -0.53029  -0.52748  -0.52402  -0.52077  -0.51441
 Alpha  occ. eigenvalues --   -0.51000  -0.50590  -0.49741  -0.48803  -0.48552
 Alpha  occ. eigenvalues --   -0.47714  -0.47618  -0.46144  -0.44574  -0.42793
 Alpha  occ. eigenvalues --   -0.41840  -0.41483  -0.40997  -0.39155  -0.38861
 Alpha  occ. eigenvalues --   -0.38365  -0.37992  -0.34111
 Alpha virt. eigenvalues --    0.17548   0.18841   0.19661   0.20019   0.20356
 Alpha virt. eigenvalues --    0.21322   0.21715   0.23006   0.23206   0.24281
 Alpha virt. eigenvalues --    0.24507   0.25508   0.25775   0.26547   0.26852

 Mulliken atomic charges:
              1
     1  C   -0.281459
     2  N   -0.787276
     3  C    0.822433
     4  O   -0.628842
     5  C    0.104287
     6  C   -0.472770
     7  C   -0.336261
     8  C   -0.330631
     9  C   -0.360504
    10  C   -0.165263
    11  C   -0.183745
    12  C   -0.353680
    13  C   -0.313678
    14  C   -0.328590
    15  C    0.091103
    16  C   -0.509221
    17  N   -0.787582
    18  C    0.767187
    19  C   -0.595785
    20  O   -0.614415
    21  C    0.820048
    22  O   -0.636362
    23  N   -0.809626
    24  C   -0.285443
    25  N   -0.842985
    26  C    0.744591
    27  C   -0.588601
    28  O   -0.591017
    29  H    0.182644
    30  H    0.209463
    31  H    0.164998
    32  H    0.388742
    33  H    0.198567
    34  H    0.143382
    35  H    0.213242
    36  H    0.161788
    37  H    0.179950
    38  H    0.164937
    39  H    0.185659
    40  H    0.220958
    41  H    0.174704
    42  H    0.165533
    43  H    0.168405
    44  H    0.180256
    45  H    0.159703
    46  H    0.152449
    47  H    0.203417
    48  H    0.173817
    49  H    0.182530
    50  H    0.184313
    51  H    0.146478
    52  H    0.226508
    53  H    0.390651
    54  H    0.210940
    55  H    0.210468
    56  H    0.176568
    57  H    0.395196
    58  H    0.161092
    59  H    0.208510
    60  H    0.190061
    61  H    0.381687
    62  H    0.218575
    63  H    0.176622
    64  H    0.201274
 Sum of Mulliken atomic charges =   0.00000

 Dipole moment (field-independent basis, Debye):
    X=              3.5154    Y=              3.1705    Z=              7.0505  Tot=              8.4923
 Quadrupole moment (field-independent basis, Debye-Ang):
   XX=           -158.6459   YY=           -170.5859   ZZ=           -173.8862
   XY=             -9.2236   XZ=             19.8960   YZ=            -13.4836

 Normal termination of Gaussian 09 at Thu Dec  5 18:06:09 2019.
