 Gaussian 09, Revision A.02,
 Gaussian 09:  EM64L-G09RevA.02 11-Jun-2009

 ---------------------------------
 #SP HF/6-31G* Geom=(ModRedundant)
 ---------------------------------

 ------------
 paramfit run
 ------------
 Symbolic Z-matrix:
 Charge =  0 Multiplicity = 1

                         Standard orientation:
 ---------------------------------------------------------------------
 Center     Atomic      Atomic             Coordinates (Angstroms)
 Number     Number       Type             X           Y           Z
 ---------------------------------------------------------------------
      1          6    20001001        0.272400   -0.296981    0.925151
      2          7    20001014       -1.020402   -0.275973    0.272873
      3          6    20001002       -2.134686   -0.003745    0.991465
      4          8    20001024       -2.091824    0.442886    2.104312
      5          6    90000001       -3.478098   -0.166635    0.257915
      6          6    90000002       -4.611305   -0.283841    1.282583
      7          6    90000002       -3.707241    1.026994   -0.708702
      8          6    90000002       -3.780168    2.452194   -0.131534
      9          6    90000002       -2.450005    3.181266    0.143707
     10          6    20001004       -1.553680    3.302662   -1.066311
     11          6    20001004       -0.231476    3.347620   -1.088934
     12          6    90000002        0.709463    3.289715    0.090487
     13          6    90000002        1.385241    1.921906    0.295395
     14          6    90000002        2.249495    1.502973   -0.901465
     15          6    90000002        3.127020    0.232664   -0.756850
     16          6    90000002        3.835957    0.002004   -2.101341
     17          7    20001014        4.120830    0.471049    0.280959
     18          6    20001002        4.940527   -0.525550    0.725868
     19          6    20001001        5.636216   -0.241049    2.037310
     20          8    20001024        5.101912   -1.552243    0.126702
     21          6    20001002        2.225830   -0.938559   -0.304282
     22          8    20001024        1.960608   -1.084793    0.858560
     23          7    20001014        1.677954   -1.710349   -1.267689
     24          6    20001001        0.864990   -2.855005   -0.911242
     25          7    20001014       -3.446355   -1.350425   -0.613328
     26          6    20001002       -3.236434   -2.618996   -0.159091
     27          6    20001001       -3.590643   -3.719222   -1.137945
     28          8    20001024       -2.792736   -2.850627    0.929771
     29          1    20001035        0.350099   -1.107780    1.640355
     30          1    20001035        0.434076    0.635916    1.445043
     31          1    20001035        1.038962   -0.414126    0.169497
     32          1    20001029       -1.137318   -0.853513   -0.526542
     33          1    20001034       -4.631542    0.570016    1.942471
     34          1    20001034       -5.562342   -0.353077    0.762995
     35          1    20001034       -4.478012   -1.165881    1.891816
     36          1    20001034       -4.659392    0.830256   -1.196476
     37          1    20001034       -2.952686    0.988478   -1.488089
     38          1    20001034       -4.334917    3.047142   -0.851192
     39          1    20001034       -4.370165    2.453945    0.779110
     40          1    20001034       -1.909072    2.680194    0.935970
     41          1    20001034       -2.697546    4.165208    0.526349
     42          1    20001033       -2.066057    3.353258   -2.013425
     43          1    20001033        0.242525    3.431520   -2.054358
     44          1    20001034        0.185543    3.549089    1.002464
     45          1    20001034        1.479093    4.048901   -0.043311
     46          1    20001034        1.982119    1.980578    1.201302
     47          1    20001034        0.627225    1.173692    0.486226
     48          1    20001034        2.923085    2.316345   -1.162684
     49          1    20001034        1.603433    1.348038   -1.757589
     50          1    20001034        4.517799    0.825318   -2.279746
     51          1    20001034        3.126263   -0.015705   -2.921951
     52          1    20001034        4.407381   -0.914079   -2.098878
     53          1    20001029        3.860484    1.135152    0.973706
     54          1    20001034        6.507607   -0.872725    2.119308
     55          1    20001034        4.955421   -0.479678    2.848913
     56          1    20001034        5.926396    0.800076    2.128061
     57          1    20001029        2.099122   -1.714505   -2.166527
     58          1    20001035        0.426517   -3.261629   -1.813084
     59          1    20001035        0.074355   -2.547008   -0.242915
     60          1    20001035        1.448935   -3.626123   -0.419166
     61          1    20001029       -3.941895   -1.264476   -1.472747
     62          1    20001034       -3.048955   -4.614135   -0.868356
     63          1    20001034       -3.360795   -3.447301   -2.162045
     64          1    20001034       -4.654031   -3.925782   -1.072068
 ---------------------------------------------------------------------

 SCF Done:  E(RHF) =  -1295.29554287     A.U. after   16 cycles

 The electronic state is 1-A.
 Alpha  occ. eigenvalues --  -20.53169 -20.52628 -20.52577 -20.50197 -15.60868
 Alpha  occ. eigenvalues --  -15.58960 -15.58201 -15.54464 -11.35987 -11.35494
 Alpha  occ. eigenvalues --  -11.34780 -11.31919 -11.29557 -11.27940 -11.26742
 Alpha  occ. eigenvalues --  -11.24144 -11.23386 -11.23313 -11.22853 -11.22646
 Alpha  occ. eigenvalues --  -11.22249 -11.21657 -11.21485 -11.21429 -11.21128
 Alpha  occ. eigenvalues --  -11.20096 -11.19503 -11.18145  -1.45808  -1.40042
 Alpha  occ. eigenvalues --   -1.39300  -1.37026  -1.25873  -1.24621  -1.24273
 Alpha  occ. eigenvalues --   -1.19895  -1.10343  -1.09204  -1.07139  -1.03998
 Alpha  occ. eigenvalues --   -1.01465  -0.99468  -0.99144  -0.96865  -0.95791
 Alpha  occ. eigenvalues --   -0.94481  -0.91740  -0.87830  -0.86068  -0.82623
 Alpha  occ. eigenvalues --   -0.81828  -0.81664  -0.78818  -0.78219  -0.75303
 Alpha  occ. eigenvalues --   -0.73253  -0.72364  -0.71575  -0.69386  -0.68974
 Alpha  occ. eigenvalues --   -0.68238  -0.67609  -0.66117  -0.65048  -0.63555
 Alpha  occ. eigenvalues --   -0.63174  -0.62546  -0.62064  -0.61672  -0.61223
 Alpha  occ. eigenvalues --   -0.60494  -0.60312  -0.59524  -0.59331  -0.58175
 Alpha  occ. eigenvalues --   -0.57945  -0.57244  -0.56928  -0.56652  -0.56371
 Alpha  occ. eigenvalues --   -0.56131  -0.55867  -0.54847  -0.54372  -0.54081
 Alpha  occ. eigenvalues --   -0.52956  -0.52762  -0.51570  -0.51439  -0.51178
 Alpha  occ. eigenvalues --   -0.50211  -0.49926  -0.48597  -0.47237  -0.46937
 Alpha  occ. eigenvalues --   -0.46524  -0.45090  -0.43966  -0.42794  -0.42290
 Alpha  occ. eigenvalues --   -0.41641  -0.41351  -0.40729  -0.39701  -0.38439
 Alpha  occ. eigenvalues --   -0.34818  -0.33886  -0.33308
 Alpha virt. eigenvalues --    0.15299   0.18029   0.19206   0.20180   0.20251
 Alpha virt. eigenvalues --    0.21232   0.21674   0.22708   0.23782   0.24844
 Alpha virt. eigenvalues --    0.25230   0.26089   0.26669   0.27122   0.27716

 Mulliken atomic charges:
              1
     1  C   -0.269532
     2  N   -0.807742
     3  C    0.833983
     4  O   -0.641003
     5  C    0.105307
     6  C   -0.472144
     7  C   -0.329289
     8  C   -0.327057
     9  C   -0.361161
    10  C   -0.164848
    11  C   -0.177528
    12  C   -0.341337
    13  C   -0.351400
    14  C   -0.332791
    15  C    0.115993
    16  C   -0.510445
    17  N   -0.785219
    18  C    0.766343
    19  C   -0.595834
    20  O   -0.613325
    21  C    0.777002
    22  O   -0.626804
    23  N   -0.777066
    24  C   -0.307204
    25  N   -0.841023
    26  C    0.746755
    27  C   -0.588434
    28  O   -0.592878
    29  H    0.221600
    30  H    0.211391
    31  H    0.076061
    32  H    0.384300
    33  H    0.196655
    34  H    0.139096
    35  H    0.210841
    36  H    0.155556
    37  H    0.183266
    38  H    0.157822
    39  H    0.183527
    40  H    0.214305
    41  H    0.173977
    42  H    0.162028
    43  H    0.164857
    44  H    0.180887
    45  H    0.153428
    46  H    0.140759
    47  H    0.260233
    48  H    0.177983
    49  H    0.181415
    50  H    0.191809
    51  H    0.147417
    52  H    0.227165
    53  H    0.394122
    54  H    0.212874
    55  H    0.210351
    56  H    0.179471
    57  H    0.408676
    58  H    0.170530
    59  H    0.222357
    60  H    0.203541
    61  H    0.379301
    62  H    0.215353
    63  H    0.173930
    64  H    0.201796
 Sum of Mulliken atomic charges =   0.00000

 Dipole moment (field-independent basis, Debye):
    X=             -1.0333    Y=              0.7476    Z=             -7.0391  Tot=              7.1537
 Quadrupole moment (field-independent basis, Debye-Ang):
   XX=           -162.6955   YY=           -173.4499   ZZ=           -171.2131
   XY=             15.4630   XZ=             18.6423   YZ=             14.2525

 Normal termination of Gaussian 09 at Thu Dec  5 17:30:28 2019.
