 Gaussian 09, Revision A.02,
 Gaussian 09:  EM64L-G09RevA.02 11-Jun-2009

 ---------------------------------
 #SP HF/6-31G* Geom=(ModRedundant)
 ---------------------------------

 ------------
 paramfit run
 ------------
 Symbolic Z-matrix:
 Charge =  0 Multiplicity = 1

                         Standard orientation:
 ---------------------------------------------------------------------
 Center     Atomic      Atomic             Coordinates (Angstroms)
 Number     Number       Type             X           Y           Z
 ---------------------------------------------------------------------
      1          6    20001001       -3.724589    2.877367    0.550052
      2          7    20001014       -4.093271    1.476960    0.563437
      3          6    20001002       -4.305472    0.823635   -0.602859
      4          8    20001024       -3.988533    1.281242   -1.665822
      5          6    90000001       -4.854766   -0.610121   -0.493285
      6          6    90000002       -5.467254   -1.028794   -1.833962
      7          6    90000002       -3.725996   -1.582779   -0.055772
      8          6    90000002       -2.484542   -1.738058   -0.952609
      9          6    90000002       -1.366268   -0.685922   -0.814365
     10          6    20001004       -0.814291   -0.555824    0.585876
     11          6    20001004        0.302083   -1.080702    1.064385
     12          6    90000002        1.300974   -1.941349    0.328682
     13          6    90000002        2.577524   -1.199354   -0.106550
     14          6    90000002        3.366560   -0.631479    1.080823
     15          6    90000002        4.761697   -0.015434    0.800242
     16          6    90000002        5.305195    0.529684    2.130996
     17          7    20001014        5.642992   -1.066628    0.310505
     18          6    20001002        6.895362   -0.787876   -0.155245
     19          6    20001001        7.533658   -1.891234   -0.967639
     20          8    20001024        7.453816    0.251790    0.060079
     21          6    20001002        4.614656    1.049438   -0.310232
     22          8    20001024        4.613180    0.722819   -1.466625
     23          7    20001014        4.387882    2.323654    0.075683
     24          6    20001001        4.291148    3.378903   -0.911887
     25          7    20001014       -5.856038   -0.695004    0.579878
     26          6    20001002       -7.008946    0.033093    0.598572
     27          6    20001001       -8.057270   -0.447949    1.580272
     28          8    20001024       -7.179616    0.991593   -0.100206
     29          1    20001035       -4.524748    3.501398    0.168896
     30          1    20001035       -2.852804    3.019323   -0.071690
     31          1    20001035       -3.486651    3.181844    1.561503
     32          1    20001029       -4.590099    1.143718    1.356153
     33          1    20001034       -4.747325   -0.950109   -2.634239
     34          1    20001034       -5.813211   -2.056019   -1.767923
     35          1    20001034       -6.303310   -0.391002   -2.081260
     36          1    20001034       -4.194230   -2.562065    0.014755
     37          1    20001034       -3.416697   -1.320450    0.951103
     38          1    20001034       -2.052622   -2.705743   -0.714599
     39          1    20001034       -2.783561   -1.789824   -1.994378
     40          1    20001034       -1.723121    0.280766   -1.145322
     41          1    20001034       -0.576949   -0.965365   -1.503365
     42          1    20001033       -1.408478    0.040138    1.259585
     43          1    20001033        0.540643   -0.875444    2.096237
     44          1    20001034        0.845074   -2.377089   -0.552085
     45          1    20001034        1.577831   -2.776271    0.971215
     46          1    20001034        3.185933   -1.895298   -0.677404
     47          1    20001034        2.313017   -0.404253   -0.791153
     48          1    20001034        3.517019   -1.413846    1.821631
     49          1    20001034        2.769236    0.136701    1.557744
     50          1    20001034        5.469069   -0.302465    2.805722
     51          1    20001034        4.590933    1.195633    2.603990
     52          1    20001034        6.244611    1.044753    1.997052
     53          1    20001029        5.188161   -1.822892   -0.147650
     54          1    20001034        8.604271   -1.753967   -0.970257
     55          1    20001034        7.171229   -1.822791   -1.988956
     56          1    20001034        7.289629   -2.875326   -0.582419
     57          1    20001029        4.632643    2.588111    1.000595
     58          1    20001035        3.989360    4.291174   -0.414283
     59          1    20001035        3.548616    3.118988   -1.651965
     60          1    20001035        5.236624    3.544473   -1.418263
     61          1    20001029       -5.862607   -1.547406    1.094577
     62          1    20001034       -8.726901    0.369546    1.804481
     63          1    20001034       -7.618738   -0.823523    2.497977
     64          1    20001034       -8.630358   -1.249321    1.125107
 ---------------------------------------------------------------------

 SCF Done:  E(RHF) =  -1295.62207315     A.U. after   14 cycles

 The electronic state is 1-A.
 Alpha  occ. eigenvalues --  -20.53655 -20.52032 -20.51853 -20.51566 -15.59614
 Alpha  occ. eigenvalues --  -15.57874 -15.57543 -15.57506 -11.35974 -11.34240
 Alpha  occ. eigenvalues --  -11.33866 -11.33654 -11.29032 -11.28548 -11.24950
 Alpha  occ. eigenvalues --  -11.24908 -11.24365 -11.24011 -11.23379 -11.22693
 Alpha  occ. eigenvalues --  -11.22536 -11.22502 -11.22331 -11.22222 -11.22021
 Alpha  occ. eigenvalues --  -11.21791 -11.21591 -11.20855  -1.40592  -1.39347
 Alpha  occ. eigenvalues --   -1.38711  -1.38069  -1.25439  -1.23532  -1.22586
 Alpha  occ. eigenvalues --   -1.22089  -1.10754  -1.09257  -1.07182  -1.04220
 Alpha  occ. eigenvalues --   -1.01231  -0.99321  -0.98726  -0.95527  -0.95117
 Alpha  occ. eigenvalues --   -0.94562  -0.92184  -0.87254  -0.85695  -0.82830
 Alpha  occ. eigenvalues --   -0.81342  -0.79475  -0.78767  -0.77189  -0.76852
 Alpha  occ. eigenvalues --   -0.71896  -0.71288  -0.71100  -0.68946  -0.67976
 Alpha  occ. eigenvalues --   -0.66695  -0.65859  -0.64521  -0.63957  -0.63703
 Alpha  occ. eigenvalues --   -0.62589  -0.62323  -0.61762  -0.61404  -0.61144
 Alpha  occ. eigenvalues --   -0.60918  -0.59896  -0.59330  -0.58708  -0.58424
 Alpha  occ. eigenvalues --   -0.58248  -0.57818  -0.56585  -0.56386  -0.56206
 Alpha  occ. eigenvalues --   -0.55494  -0.54846  -0.54732  -0.54561  -0.53943
 Alpha  occ. eigenvalues --   -0.53073  -0.52822  -0.52474  -0.52143  -0.51540
 Alpha  occ. eigenvalues --   -0.51034  -0.50303  -0.49758  -0.49235  -0.48541
 Alpha  occ. eigenvalues --   -0.48346  -0.46936  -0.46386  -0.44525  -0.42872
 Alpha  occ. eigenvalues --   -0.41949  -0.41482  -0.41047  -0.39293  -0.38816
 Alpha  occ. eigenvalues --   -0.38326  -0.38257  -0.34505
 Alpha virt. eigenvalues --    0.17365   0.18794   0.19673   0.19987   0.20229
 Alpha virt. eigenvalues --    0.21614   0.21987   0.23170   0.23278   0.23950
 Alpha virt. eigenvalues --    0.25281   0.25654   0.26543   0.27127   0.27659

 Mulliken atomic charges:
              1
     1  C   -0.279620
     2  N   -0.783428
     3  C    0.821909
     4  O   -0.628081
     5  C    0.102356
     6  C   -0.472795
     7  C   -0.334439
     8  C   -0.312088
     9  C   -0.373781
    10  C   -0.178150
    11  C   -0.177324
    12  C   -0.353434
    13  C   -0.310531
    14  C   -0.329063
    15  C    0.091048
    16  C   -0.509583
    17  N   -0.787622
    18  C    0.767307
    19  C   -0.595692
    20  O   -0.613880
    21  C    0.820611
    22  O   -0.639290
    23  N   -0.805964
    24  C   -0.275615
    25  N   -0.843084
    26  C    0.744556
    27  C   -0.588676
    28  O   -0.591743
    29  H    0.186986
    30  H    0.198383
    31  H    0.162141
    32  H    0.391281
    33  H    0.198987
    34  H    0.144108
    35  H    0.212536
    36  H    0.161479
    37  H    0.181838
    38  H    0.164547
    39  H    0.179975
    40  H    0.213596
    41  H    0.175007
    42  H    0.180126
    43  H    0.169564
    44  H    0.176831
    45  H    0.160123
    46  H    0.151033
    47  H    0.199626
    48  H    0.173064
    49  H    0.185029
    50  H    0.183450
    51  H    0.148327
    52  H    0.226615
    53  H    0.389782
    54  H    0.211146
    55  H    0.209522
    56  H    0.176242
    57  H    0.395241
    58  H    0.164822
    59  H    0.199944
    60  H    0.184946
    61  H    0.382610
    62  H    0.218627
    63  H    0.177173
    64  H    0.201389
 Sum of Mulliken atomic charges =   0.00000

 Dipole moment (field-independent basis, Debye):
    X=             -2.8444    Y=             -4.4642    Z=              6.4502  Tot=              8.3442
 Quadrupole moment (field-independent basis, Debye-Ang):
   XX=           -193.3692   YY=           -156.1372   ZZ=           -173.4650
   XY=             13.5709   XZ=            -18.0397   YZ=              9.9259

 Normal termination of Gaussian 09 at Thu Dec  5 17:25:54 2019.
