 Gaussian 09, Revision A.02,
 Gaussian 09:  EM64L-G09RevA.02 11-Jun-2009

 ---------------------------------
 #SP HF/6-31G* Geom=(ModRedundant)
 ---------------------------------

 ------------
 paramfit run
 ------------
 Symbolic Z-matrix:
 Charge =  0 Multiplicity = 1

                         Standard orientation:
 ---------------------------------------------------------------------
 Center     Atomic      Atomic             Coordinates (Angstroms)
 Number     Number       Type             X           Y           Z
 ---------------------------------------------------------------------
      1          6    20001001       -5.087554    2.542349    1.517741
      2          7    20001014       -4.649368    1.249906    1.033147
      3          6    20001002       -4.629646    0.998887   -0.296782
      4          8    20001024       -4.744788    1.865326   -1.118835
      5          6    90000001       -4.312479   -0.448187   -0.714832
      6          6    90000002       -4.775051   -0.678646   -2.157315
      7          6    90000002       -2.794009   -0.730471   -0.553063
      8          6    90000002       -1.787980    0.108807   -1.361242
      9          6    90000002       -1.394027    1.489321   -0.799442
     10          6    20001004       -0.820902    1.443740    0.597600
     11          6    20001004        0.015438    0.548307    1.097092
     12          6    90000002        0.603627   -0.651337    0.393784
     13          6    90000002        2.062480   -0.466699   -0.061435
     14          6    90000002        3.019662   -0.205075    1.109149
     15          6    90000002        4.541571   -0.177084    0.813081
     16          6    90000002        5.264462    0.161758    2.126878
     17          7    20001014        4.950723   -1.500042    0.361520
     18          6    20001002        6.210281   -1.735119   -0.108915
     19          6    20001001        6.371859   -3.023896   -0.882060
     20          8    20001024        7.125016   -0.980767    0.073717
     21          6    20001002        4.801198    0.827264   -0.332608
     22          8    20001024        4.664318    0.489105   -1.477527
     23          7    20001014        5.081138    2.103277    0.010040
     24          6    20001001        5.384765    3.083476   -1.012320
     25          7    20001014       -4.967022   -1.399854    0.194748
     26          6    20001002       -6.316814   -1.466102    0.377349
     27          6    20001001       -6.811763   -2.721943    1.064377
     28          8    20001024       -7.059585   -0.591343    0.032055
     29          1    20001035       -6.138285    2.714230    1.314340
     30          1    20001035       -4.513585    3.324155    1.042282
     31          1    20001035       -4.920101    2.585674    2.586589
     32          1    20001029       -4.785751    0.468566    1.630803
     33          1    20001034       -4.317510    0.028466   -2.832282
     34          1    20001034       -4.509595   -1.685602   -2.465229
     35          1    20001034       -5.845900   -0.558233   -2.232878
     36          1    20001034       -2.655810   -1.768003   -0.849118
     37          1    20001034       -2.545002   -0.679689    0.502255
     38          1    20001034       -0.881046   -0.484368   -1.433565
     39          1    20001034       -2.144898    0.238319   -2.377712
     40          1    20001034       -2.249584    2.152107   -0.809519
     41          1    20001034       -0.673556    1.920400   -1.485682
     42          1    20001033       -1.136510    2.242505    1.249121
     43          1    20001033        0.324015    0.679932    2.122381
     44          1    20001034        0.007686   -0.908156   -0.473605
     45          1    20001034        0.547253   -1.507728    1.064611
     46          1    20001034        2.354082   -1.359967   -0.606792
     47          1    20001034        2.114686    0.346849   -0.772944
     48          1    20001034        2.867420   -0.961561    1.876018
     49          1    20001034        2.764962    0.747694    1.558269
     50          1    20001034        5.105011   -0.647946    2.829399
     51          1    20001034        4.862645    1.064563    2.575062
     52          1    20001034        6.327992    0.274984    1.979150
     53          1    20001029        4.237548   -2.039868   -0.072854
     54          1    20001034        7.413839   -3.305544   -0.885551
     55          1    20001034        6.053253   -2.855080   -1.906324
     56          1    20001034        5.774661   -3.827637   -0.465245
     57          1    20001029        5.417007    2.283806    0.926507
     58          1    20001035        5.458398    4.057294   -0.546296
     59          1    20001035        4.592247    3.102923   -1.745916
     60          1    20001035        6.317087    2.859599   -1.520658
     61          1    20001029       -4.452738   -2.229736    0.390594
     62          1    20001034       -7.778188   -2.521857    1.503651
     63          1    20001034       -6.126728   -3.068170    1.830149
     64          1    20001034       -6.923688   -3.510607    0.327299
 ---------------------------------------------------------------------

 SCF Done:  E(RHF) =  -1295.60051056     A.U. after   14 cycles

 The electronic state is 1-A.
 Alpha  occ. eigenvalues --  -20.53564 -20.52249 -20.51819 -20.51718 -15.59509
 Alpha  occ. eigenvalues --  -15.58109 -15.57738 -15.57310 -11.35888 -11.34459
 Alpha  occ. eigenvalues --  -11.33899 -11.33726 -11.28924 -11.28767 -11.25195
 Alpha  occ. eigenvalues --  -11.24820 -11.24305 -11.23783 -11.23614 -11.22726
 Alpha  occ. eigenvalues --  -11.22670 -11.22440 -11.22416 -11.22369 -11.22182
 Alpha  occ. eigenvalues --  -11.21983 -11.21792 -11.20749  -1.40499  -1.39580
 Alpha  occ. eigenvalues --   -1.38581  -1.38305  -1.25320  -1.23762  -1.22823
 Alpha  occ. eigenvalues --   -1.21898  -1.11363  -1.09203  -1.07269  -1.04170
 Alpha  occ. eigenvalues --   -1.01256  -0.99300  -0.98886  -0.95623  -0.95393
 Alpha  occ. eigenvalues --   -0.94843  -0.92432  -0.87696  -0.85671  -0.82953
 Alpha  occ. eigenvalues --   -0.81266  -0.79699  -0.78651  -0.77086  -0.77006
 Alpha  occ. eigenvalues --   -0.72816  -0.71692  -0.70998  -0.68928  -0.68082
 Alpha  occ. eigenvalues --   -0.67362  -0.65467  -0.64622  -0.63880  -0.63190
 Alpha  occ. eigenvalues --   -0.63130  -0.62382  -0.61905  -0.61599  -0.61320
 Alpha  occ. eigenvalues --   -0.60757  -0.60323  -0.59506  -0.58939  -0.58836
 Alpha  occ. eigenvalues --   -0.58000  -0.57719  -0.56830  -0.56572  -0.56100
 Alpha  occ. eigenvalues --   -0.55643  -0.55255  -0.54948  -0.54756  -0.54444
 Alpha  occ. eigenvalues --   -0.53513  -0.52977  -0.52212  -0.52192  -0.51674
 Alpha  occ. eigenvalues --   -0.51006  -0.50574  -0.49909  -0.49495  -0.48823
 Alpha  occ. eigenvalues --   -0.48201  -0.47704  -0.45152  -0.43921  -0.42801
 Alpha  occ. eigenvalues --   -0.41743  -0.41627  -0.41250  -0.39168  -0.39050
 Alpha  occ. eigenvalues --   -0.38499  -0.38192  -0.34629
 Alpha virt. eigenvalues --    0.17060   0.18893   0.19444   0.20167   0.20291
 Alpha virt. eigenvalues --    0.21385   0.21799   0.23007   0.23171   0.24382
 Alpha virt. eigenvalues --    0.25204   0.25948   0.26498   0.26833   0.27527

 Mulliken atomic charges:
              1
     1  C   -0.278879
     2  N   -0.779927
     3  C    0.822278
     4  O   -0.630569
     5  C    0.104027
     6  C   -0.472332
     7  C   -0.329147
     8  C   -0.344866
     9  C   -0.355138
    10  C   -0.180125
    11  C   -0.180101
    12  C   -0.348127
    13  C   -0.306174
    14  C   -0.328058
    15  C    0.090644
    16  C   -0.509784
    17  N   -0.787590
    18  C    0.767358
    19  C   -0.595695
    20  O   -0.613421
    21  C    0.820491
    22  O   -0.640068
    23  N   -0.805892
    24  C   -0.275430
    25  N   -0.842844
    26  C    0.744758
    27  C   -0.588644
    28  O   -0.592074
    29  H    0.186434
    30  H    0.194909
    31  H    0.162573
    32  H    0.391388
    33  H    0.198706
    34  H    0.143318
    35  H    0.211865
    36  H    0.156758
    37  H    0.191339
    38  H    0.174437
    39  H    0.184525
    40  H    0.212364
    41  H    0.182143
    42  H    0.179837
    43  H    0.171807
    44  H    0.163135
    45  H    0.155285
    46  H    0.149331
    47  H    0.196943
    48  H    0.173179
    49  H    0.185823
    50  H    0.183579
    51  H    0.149012
    52  H    0.226911
    53  H    0.389247
    54  H    0.211729
    55  H    0.209200
    56  H    0.175884
    57  H    0.395850
    58  H    0.165630
    59  H    0.198258
    60  H    0.185422
    61  H    0.382054
    62  H    0.218434
    63  H    0.177043
    64  H    0.200977
 Sum of Mulliken atomic charges =   0.00000

 Dipole moment (field-independent basis, Debye):
    X=             -0.1912    Y=             -4.2447    Z=              4.9226  Tot=              6.5028
 Quadrupole moment (field-independent basis, Debye-Ang):
   XX=           -225.8686   YY=           -150.7234   ZZ=           -170.5178
   XY=             26.6789   XZ=             -9.4021   YZ=              7.7748

 Normal termination of Gaussian 09 at Thu Dec  5 18:05:11 2019.
