 Gaussian 09, Revision A.02,
 Gaussian 09:  EM64L-G09RevA.02 11-Jun-2009

 ---------------------------------
 #SP HF/6-31G* Geom=(ModRedundant)
 ---------------------------------

 ------------
 paramfit run
 ------------
 Symbolic Z-matrix:
 Charge =  0 Multiplicity = 1

                         Standard orientation:
 ---------------------------------------------------------------------
 Center     Atomic      Atomic             Coordinates (Angstroms)
 Number     Number       Type             X           Y           Z
 ---------------------------------------------------------------------
      1          6    20001001       -1.523349   -0.067668   -2.933989
      2          7    20001014       -1.394352    0.176477   -1.512370
      3          6    20001002       -2.312088    0.938152   -0.872275
      4          8    20001024       -3.358394    1.245120   -1.373035
      5          6    90000001       -2.008821    1.284172    0.596631
      6          6    90000002       -2.854063    2.488225    1.025192
      7          6    90000002       -2.275981    0.051184    1.502152
      8          6    90000002       -3.695074   -0.542926    1.555510
      9          6    90000002       -4.103989   -1.519876    0.435245
     10          6    20001004       -3.191829   -2.716502    0.299859
     11          6    20001004       -2.109168   -2.823840   -0.453187
     12          6    90000002       -1.517606   -1.776024   -1.365267
     13          6    90000002       -0.282382   -1.059731   -0.790193
     14          6    90000002        0.881356   -2.019611   -0.508664
     15          6    90000002        2.245401   -1.408809   -0.095206
     16          6    90000002        3.209743   -2.572664    0.185754
     17          7    20001014        2.753776   -0.614839   -1.205476
     18          6    20001002        3.870728    0.158973   -1.076286
     19          6    20001001        4.055080    1.198091   -2.158439
     20          8    20001024        4.651809    0.029800   -0.174972
     21          6    20001002        2.017685   -0.467156    1.109020
     22          8    20001024        1.653217    0.664277    0.933089
     23          7    20001014        2.144040   -0.996207    2.345191
     24          6    20001001        1.994175   -0.157477    3.516633
     25          7    20001014       -0.577439    1.570887    0.770899
     26          6    20001002        0.077921    2.574762    0.120967
     27          6    20001001        1.434827    2.931670    0.691527
     28          8    20001024       -0.377438    3.128498   -0.839328
     29          1    20001035       -1.397942    0.840603   -3.512147
     30          1    20001035       -2.499672   -0.477858   -3.146734
     31          1    20001035       -0.769491   -0.785810   -3.231179
     32          1    20001029       -0.477921    0.169566   -1.129759
     33          1    20001034       -3.906721    2.297858    0.881650
     34          1    20001034       -2.672200    2.702159    2.074190
     35          1    20001034       -2.595190    3.357613    0.438614
     36          1    20001034       -2.024034    0.368969    2.511486
     37          1    20001034       -1.565444   -0.727176    1.242204
     38          1    20001034       -3.768841   -1.078284    2.497618
     39          1    20001034       -4.429490    0.254357    1.603960
     40          1    20001034       -4.148565   -0.999806   -0.512860
     41          1    20001034       -5.117058   -1.843530    0.646838
     42          1    20001033       -3.466326   -3.572171    0.895340
     43          1    20001033       -1.575594   -3.760790   -0.418777
     44          1    20001034       -2.261071   -1.026852   -1.609126
     45          1    20001034       -1.245558   -2.250888   -2.307120
     46          1    20001034        0.013523   -0.291011   -1.498632
     47          1    20001034       -0.561217   -0.538136    0.115909
     48          1    20001034        1.069265   -2.627760   -1.390923
     49          1    20001034        0.585096   -2.700773    0.280384
     50          1    20001034        3.383732   -3.110042   -0.739197
     51          1    20001034        2.782447   -3.274920    0.894018
     52          1    20001034        4.161475   -2.221608    0.555488
     53          1    20001029        2.060993   -0.245738   -1.815826
     54          1    20001034        5.093964    1.488551   -2.196045
     55          1    20001034        3.458628    2.069735   -1.906235
     56          1    20001034        3.738727    0.835713   -3.130542
     57          1    20001029        2.666781   -1.833523    2.449847
     58          1    20001035        2.010313   -0.786986    4.396620
     59          1    20001035        1.049179    0.363825    3.473588
     60          1    20001035        2.788608    0.578274    3.589448
     61          1    20001029       -0.180902    1.269046    1.632988
     62          1    20001034        2.018215    3.420736   -0.074924
     63          1    20001034        1.968132    2.061482    1.057462
     64          1    20001034        1.303046    3.621720    1.518732
 ---------------------------------------------------------------------

 SCF Done:  E(RHF) =  -1295.07104189     A.U. after   15 cycles

 The electronic state is 1-A.
 Alpha  occ. eigenvalues --  -20.54939 -20.53642 -20.50805 -20.50778 -15.61117
 Alpha  occ. eigenvalues --  -15.59255 -15.56523 -15.52053 -11.36967 -11.35734
 Alpha  occ. eigenvalues --  -11.32697 -11.32036 -11.30437 -11.28112 -11.27761
 Alpha  occ. eigenvalues --  -11.25211 -11.24725 -11.23469 -11.23371 -11.23317
 Alpha  occ. eigenvalues --  -11.23216 -11.22577 -11.22382 -11.21966 -11.21706
 Alpha  occ. eigenvalues --  -11.21368 -11.19763 -11.17528  -1.43759  -1.40300
 Alpha  occ. eigenvalues --   -1.39182  -1.37509  -1.31875  -1.26274  -1.25218
 Alpha  occ. eigenvalues --   -1.22749  -1.10959  -1.09691  -1.07480  -1.05669
 Alpha  occ. eigenvalues --   -1.01774  -1.00223  -0.99410  -0.97891  -0.96557
 Alpha  occ. eigenvalues --   -0.95259  -0.94775  -0.91162  -0.87923  -0.85897
 Alpha  occ. eigenvalues --   -0.82425  -0.81436  -0.79549  -0.77755  -0.76177
 Alpha  occ. eigenvalues --   -0.74193  -0.73866  -0.72679  -0.70519  -0.69485
 Alpha  occ. eigenvalues --   -0.68515  -0.67269  -0.65862  -0.65130  -0.64137
 Alpha  occ. eigenvalues --   -0.64065  -0.63406  -0.63018  -0.62315  -0.61538
 Alpha  occ. eigenvalues --   -0.60909  -0.59724  -0.59572  -0.59348  -0.58652
 Alpha  occ. eigenvalues --   -0.58041  -0.57938  -0.57353  -0.56854  -0.56801
 Alpha  occ. eigenvalues --   -0.56109  -0.55830  -0.55791  -0.54396  -0.53613
 Alpha  occ. eigenvalues --   -0.52673  -0.52299  -0.51904  -0.51459  -0.50988
 Alpha  occ. eigenvalues --   -0.50837  -0.50020  -0.48929  -0.48589  -0.47803
 Alpha  occ. eigenvalues --   -0.46615  -0.46140  -0.45433  -0.44831  -0.42747
 Alpha  occ. eigenvalues --   -0.42147  -0.41650  -0.40720  -0.39141  -0.38027
 Alpha  occ. eigenvalues --   -0.36411  -0.35151  -0.30641
 Alpha virt. eigenvalues --    0.15958   0.16707   0.18739   0.19377   0.19522
 Alpha virt. eigenvalues --    0.20452   0.21592   0.21986   0.22599   0.24434
 Alpha virt. eigenvalues --    0.25224   0.25895   0.26296   0.26759   0.27567

 Mulliken atomic charges:
              1
     1  C   -0.325442
     2  N   -0.958953
     3  C    0.874313
     4  O   -0.637582
     5  C    0.085068
     6  C   -0.466999
     7  C   -0.355905
     8  C   -0.305912
     9  C   -0.380663
    10  C   -0.178901
    11  C   -0.155020
    12  C   -0.375903
    13  C   -0.357430
    14  C   -0.328331
    15  C    0.089817
    16  C   -0.509511
    17  N   -0.793588
    18  C    0.759451
    19  C   -0.599996
    20  O   -0.613823
    21  C    0.836914
    22  O   -0.675122
    23  N   -0.802689
    24  C   -0.284108
    25  N   -0.847025
    26  C    0.762890
    27  C   -0.636588
    28  O   -0.619829
    29  H    0.215548
    30  H    0.224877
    31  H    0.174128
    32  H    0.483554
    33  H    0.188972
    34  H    0.141618
    35  H    0.215739
    36  H    0.163832
    37  H    0.189536
    38  H    0.159047
    39  H    0.184238
    40  H    0.215518
    41  H    0.173440
    42  H    0.173693
    43  H    0.164987
    44  H    0.250654
    45  H    0.177159
    46  H    0.122570
    47  H    0.230089
    48  H    0.175598
    49  H    0.177619
    50  H    0.192341
    51  H    0.151720
    52  H    0.226181
    53  H    0.400618
    54  H    0.215439
    55  H    0.217308
    56  H    0.182399
    57  H    0.408270
    58  H    0.183803
    59  H    0.179872
    60  H    0.195262
    61  H    0.402632
    62  H    0.171927
    63  H    0.313293
    64  H    0.157381
 Sum of Mulliken atomic charges =   0.00000

 Dipole moment (field-independent basis, Debye):
    X=              2.7625    Y=             -5.9330    Z=              3.4677  Tot=              7.4066
 Quadrupole moment (field-independent basis, Debye-Ang):
   XX=           -194.5479   YY=           -183.9073   ZZ=           -153.5218
   XY=              3.7887   XZ=             -9.0224   YZ=              4.4055

 Normal termination of Gaussian 09 at Thu Dec  5 18:30:30 2019.
