 Gaussian 09, Revision A.02,
 Gaussian 09:  EM64L-G09RevA.02 11-Jun-2009

 ---------------------------------
 #SP HF/6-31G* Geom=(ModRedundant)
 ---------------------------------

 ------------
 paramfit run
 ------------
 Symbolic Z-matrix:
 Charge =  0 Multiplicity = 1

                         Standard orientation:
 ---------------------------------------------------------------------
 Center     Atomic      Atomic             Coordinates (Angstroms)
 Number     Number       Type             X           Y           Z
 ---------------------------------------------------------------------
      1          6    20001001        0.669997   -1.384057   -0.386780
      2          7    20001014        1.903565   -0.768257    0.056329
      3          6    20001002        2.730479   -0.188703   -0.845026
      4          8    20001024        2.394696    0.042466   -1.973546
      5          6    90000001        4.093003    0.291072   -0.313304
      6          6    90000002        5.063072    0.480071   -1.484239
      7          6    90000002        3.917988    1.604088    0.497227
      8          6    90000002        3.346537    2.847045   -0.208562
      9          6    90000002        1.814291    2.952864   -0.341460
     10          6    20001004        1.076966    2.886384    0.975434
     11          6    20001004       -0.229985    2.950315    1.171773
     12          6    90000002       -1.308790    3.106775    0.127047
     13          6    90000002       -2.056448    1.804541   -0.211712
     14          6    90000002       -2.784300    1.207030    0.999952
     15          6    90000002       -3.720992   -0.005583    0.761579
     16          6    90000002       -4.269627   -0.444887    2.128861
     17          7    20001014       -4.823658    0.420254   -0.089490
     18          6    20001002       -5.728980   -0.473426   -0.584248
     19          6    20001001       -6.567437    0.038282   -1.733139
     20          8    20001024       -5.855642   -1.582721   -0.145427
     21          6    20001002       -2.927086   -1.100570    0.013619
     22          8    20001024       -2.810939   -1.055291   -1.181532
     23          7    20001014       -2.296227   -2.031935    0.760987
     24          6    20001001       -1.577130   -3.115219    0.122553
     25          7    20001014        4.634633   -0.674299    0.654233
     26          6    20001002        4.910816   -1.975033    0.351768
     27          6    20001001        5.780319   -2.698647    1.358975
     28          8    20001024        4.488358   -2.513777   -0.631809
     29          1    20001035        0.853579   -2.253924   -1.006924
     30          1    20001035        0.090952   -0.672294   -0.956713
     31          1    20001035        0.099907   -1.681727    0.484279
     32          1    20001029        2.327035   -1.134321    0.876668
     33          1    20001034        4.666710    1.170866   -2.212683
     34          1    20001034        6.008996    0.861681   -1.111626
     35          1    20001034        5.236065   -0.461187   -1.985272
     36          1    20001034        4.913285    1.865592    0.849676
     37          1    20001034        3.329408    1.386018    1.382833
     38          1    20001034        3.684180    3.707048    0.362412
     39          1    20001034        3.786897    2.948843   -1.195018
     40          1    20001034        1.443595    2.173318   -0.994343
     41          1    20001034        1.600517    3.890084   -0.843209
     42          1    20001033        1.702195    2.769083    1.845746
     43          1    20001033       -0.579589    2.880236    2.189921
     44          1    20001034       -0.890006    3.505451   -0.789001
     45          1    20001034       -2.026754    3.846462    0.479163
     46          1    20001034       -2.756289    2.024175   -1.013185
     47          1    20001034       -1.356513    1.085396   -0.616374
     48          1    20001034       -3.389443    1.977165    1.473479
     49          1    20001034       -2.045419    0.899941    1.730774
     50          1    20001034       -4.892636    0.349018    2.524026
     51          1    20001034       -3.466683   -0.611896    2.839333
     52          1    20001034       -4.871845   -1.337450    2.048843
     53          1    20001029       -4.624128    1.185977   -0.691624
     54          1    20001034       -7.465929   -0.555326   -1.806642
     55          1    20001034       -5.999972   -0.073509   -2.652165
     56          1    20001034       -6.826327    1.084914   -1.615157
     57          1    20001029       -2.604900   -2.178640    1.692926
     58          1    20001035       -1.048251   -3.674385    0.883170
     59          1    20001035       -0.862332   -2.714004   -0.580808
     60          1    20001035       -2.245701   -3.782914   -0.411255
     61          1    20001029        5.139334   -0.280586    1.417000
     62          1    20001034        5.622961   -3.762384    1.255656
     63          1    20001034        5.567961   -2.394936    2.377903
     64          1    20001034        6.822995   -2.481591    1.150372
 ---------------------------------------------------------------------

 SCF Done:  E(RHF) =  -1295.59786502     A.U. after   14 cycles

 The electronic state is 1-A.
 Alpha  occ. eigenvalues --  -20.53523 -20.52037 -20.51860 -20.51430 -15.59490
 Alpha  occ. eigenvalues --  -15.58252 -15.57522 -15.56827 -11.35856 -11.34234
 Alpha  occ. eigenvalues --  -11.33909 -11.33433 -11.28870 -11.28642 -11.24800
 Alpha  occ. eigenvalues --  -11.24299 -11.24060 -11.23880 -11.23382 -11.22790
 Alpha  occ. eigenvalues --  -11.22436 -11.22307 -11.22206 -11.22197 -11.21895
 Alpha  occ. eigenvalues --  -11.21854 -11.21652 -11.20743  -1.40444  -1.39494
 Alpha  occ. eigenvalues --   -1.38295  -1.38220  -1.25267  -1.23577  -1.23006
 Alpha  occ. eigenvalues --   -1.21518  -1.10656  -1.09258  -1.07161  -1.04229
 Alpha  occ. eigenvalues --   -1.01234  -0.99295  -0.98824  -0.96446  -0.94798
 Alpha  occ. eigenvalues --   -0.94153  -0.92167  -0.86954  -0.85939  -0.82518
 Alpha  occ. eigenvalues --   -0.81469  -0.79575  -0.78689  -0.77091  -0.76671
 Alpha  occ. eigenvalues --   -0.72407  -0.71433  -0.71049  -0.68885  -0.68021
 Alpha  occ. eigenvalues --   -0.66367  -0.65963  -0.64325  -0.63967  -0.63883
 Alpha  occ. eigenvalues --   -0.63245  -0.62303  -0.61695  -0.61462  -0.61357
 Alpha  occ. eigenvalues --   -0.60330  -0.59638  -0.59364  -0.58912  -0.58346
 Alpha  occ. eigenvalues --   -0.57805  -0.57622  -0.57166  -0.56386  -0.56010
 Alpha  occ. eigenvalues --   -0.55454  -0.54966  -0.54696  -0.53861  -0.53662
 Alpha  occ. eigenvalues --   -0.53094  -0.52627  -0.52213  -0.52077  -0.51313
 Alpha  occ. eigenvalues --   -0.50659  -0.50640  -0.49680  -0.48873  -0.48544
 Alpha  occ. eigenvalues --   -0.47629  -0.47478  -0.46232  -0.44624  -0.42722
 Alpha  occ. eigenvalues --   -0.41721  -0.41627  -0.41067  -0.39199  -0.38915
 Alpha  occ. eigenvalues --   -0.38585  -0.37630  -0.34106
 Alpha virt. eigenvalues --    0.17434   0.18909   0.19461   0.20088   0.20449
 Alpha virt. eigenvalues --    0.21270   0.21816   0.23050   0.23542   0.24464
 Alpha virt. eigenvalues --    0.24625   0.25806   0.26251   0.26759   0.27147

 Mulliken atomic charges:
              1
     1  C   -0.308681
     2  N   -0.793634
     3  C    0.823416
     4  O   -0.630103
     5  C    0.103767
     6  C   -0.472698
     7  C   -0.334466
     8  C   -0.331474
     9  C   -0.358818
    10  C   -0.166156
    11  C   -0.183211
    12  C   -0.354122
    13  C   -0.316835
    14  C   -0.329150
    15  C    0.091296
    16  C   -0.509173
    17  N   -0.787552
    18  C    0.767010
    19  C   -0.595826
    20  O   -0.614289
    21  C    0.823045
    22  O   -0.636381
    23  N   -0.813013
    24  C   -0.310112
    25  N   -0.842619
    26  C    0.744558
    27  C   -0.588543
    28  O   -0.590991
    29  H    0.185142
    30  H    0.222873
    31  H    0.189656
    32  H    0.387270
    33  H    0.198215
    34  H    0.142889
    35  H    0.213129
    36  H    0.160887
    37  H    0.180712
    38  H    0.163640
    39  H    0.185790
    40  H    0.219145
    41  H    0.175546
    42  H    0.165003
    43  H    0.168282
    44  H    0.181855
    45  H    0.160198
    46  H    0.153153
    47  H    0.206013
    48  H    0.174530
    49  H    0.182177
    50  H    0.184913
    51  H    0.146164
    52  H    0.226823
    53  H    0.390966
    54  H    0.211142
    55  H    0.210750
    56  H    0.176759
    57  H    0.396406
    58  H    0.163974
    59  H    0.219034
    60  H    0.194559
    61  H    0.381350
    62  H    0.218265
    63  H    0.176362
    64  H    0.201184
 Sum of Mulliken atomic charges =   0.00000

 Dipole moment (field-independent basis, Debye):
    X=              3.2360    Y=              2.9020    Z=              7.0645  Tot=              8.2946
 Quadrupole moment (field-independent basis, Debye-Ang):
   XX=           -157.4587   YY=           -172.2112   ZZ=           -173.4837
   XY=            -11.8112   XZ=             19.8026   YZ=            -13.6963

 Normal termination of Gaussian 09 at Thu Dec  5 17:04:09 2019.
