 Gaussian 09, Revision A.02,
 Gaussian 09:  EM64L-G09RevA.02 11-Jun-2009

 ---------------------------------
 #SP HF/6-31G* Geom=(ModRedundant)
 ---------------------------------

 ------------
 paramfit run
 ------------
 Symbolic Z-matrix:
 Charge =  0 Multiplicity = 1

                         Standard orientation:
 ---------------------------------------------------------------------
 Center     Atomic      Atomic             Coordinates (Angstroms)
 Number     Number       Type             X           Y           Z
 ---------------------------------------------------------------------
      1          6    20001001        0.305338   -1.059157   -0.539547
      2          7    20001014        1.588648   -0.616747   -0.034932
      3          6    20001002        2.510953   -0.110918   -0.886753
      4          8    20001024        2.245360    0.201051   -2.014530
      5          6    90000001        3.902498    0.177456   -0.295288
      6          6    90000002        4.928535    0.288200   -1.427906
      7          6    90000002        3.860881    1.471459    0.562282
      8          6    90000002        3.470252    2.800383   -0.109288
      9          6    90000002        1.967923    3.099055   -0.283751
     10          6    20001004        1.182617    3.075780    1.006609
     11          6    20001004       -0.132150    3.111849    1.150988
     12          6    90000002       -1.173840    3.186352    0.060536
     13          6    90000002       -1.872903    1.848339   -0.240458
     14          6    90000002       -2.630526    1.290024    0.971650
     15          6    90000002       -3.524663    0.040981    0.759388
     16          6    90000002       -4.113466   -0.346680    2.125580
     17          7    20001014       -4.604817    0.393185   -0.152067
     18          6    20001002       -5.466289   -0.549029   -0.634930
     19          6    20001001       -6.273381   -0.118054   -1.838121
     20          8    20001024       -5.580044   -1.638791   -0.146444
     21          6    20001002       -2.673673   -1.066024    0.096757
     22          8    20001024       -2.512973   -1.075724   -1.094045
     23          7    20001014       -2.047331   -1.941475    0.912395
     24          6    20001001       -1.275584   -3.033595    0.355726
     25          7    20001014        4.288303   -0.882097    0.648075
     26          6    20001002        4.414087   -2.194998    0.301461
     27          6    20001001        5.153232   -3.056667    1.304113
     28          8    20001024        3.963545   -2.641175   -0.715435
     29          1    20001035        0.402892   -1.921719   -1.188715
     30          1    20001035       -0.162357   -0.261057   -1.097239
     31          1    20001035       -0.326775   -1.315989    0.301181
     32          1    20001029        1.935487   -1.062013    0.782214
     33          1    20001034        4.645004    1.048795   -2.139270
     34          1    20001034        5.900405    0.536401   -1.011851
     35          1    20001034        5.002730   -0.648217   -1.961334
     36          1    20001034        4.867774    1.595204    0.954804
     37          1    20001034        3.219632    1.295313    1.420217
     38          1    20001034        3.890218    3.590717    0.506032
     39          1    20001034        3.953802    2.883186   -1.077120
     40          1    20001034        1.527836    2.395584   -0.978601
     41          1    20001034        1.887679    4.073221   -0.753215
     42          1    20001033        1.776877    3.018922    1.904237
     43          1    20001033       -0.518593    3.081498    2.157716
     44          1    20001034       -0.730986    3.551723   -0.858077
     45          1    20001034       -1.924288    3.921508    0.348579
     46          1    20001034       -2.547070    2.008590   -1.077234
     47          1    20001034       -1.138995    1.130618   -0.582635
     48          1    20001034       -3.273751    2.064717    1.383532
     49          1    20001034       -1.912315    1.040131    1.743709
     50          1    20001034       -4.772164    0.447417    2.457406
     51          1    20001034       -3.334220   -0.455878    2.872730
     52          1    20001034       -4.688122   -1.258916    2.067829
     53          1    20001029       -4.402831    1.134051   -0.783756
     54          1    20001034       -7.152217   -0.739957   -1.915219
     55          1    20001034       -5.668264   -0.258233   -2.728800
     56          1    20001034       -6.564462    0.925262   -1.782036
     57          1    20001029       -2.387532   -2.051359    1.838406
     58          1    20001035       -0.761557   -3.539710    1.162290
     59          1    20001035       -0.545275   -2.646873   -0.339775
     60          1    20001035       -1.905099   -3.745325   -0.168588
     61          1    20001029        4.810415   -0.581797    1.441023
     62          1    20001034        4.870962   -4.088394    1.152992
     63          1    20001034        4.944184   -2.766620    2.327696
     64          1    20001034        6.221223   -2.962293    1.135918
 ---------------------------------------------------------------------

 SCF Done:  E(RHF) =  -1295.55371058     A.U. after   14 cycles

 The electronic state is 1-A.
 Alpha  occ. eigenvalues --  -20.53426 -20.52392 -20.52176 -20.51176 -15.59369
 Alpha  occ. eigenvalues --  -15.58637 -15.57689 -15.56426 -11.35762 -11.34368
 Alpha  occ. eigenvalues --  -11.34324 -11.33150 -11.28870 -11.28699 -11.24241
 Alpha  occ. eigenvalues --  -11.23981 -11.23930 -11.23529 -11.22727 -11.22532
 Alpha  occ. eigenvalues --  -11.22454 -11.22313 -11.22188 -11.22173 -11.22068
 Alpha  occ. eigenvalues --  -11.21872 -11.21608 -11.20621  -1.40339  -1.39965
 Alpha  occ. eigenvalues --   -1.38549  -1.38029  -1.25125  -1.23864  -1.23602
 Alpha  occ. eigenvalues --   -1.21150  -1.10653  -1.09267  -1.07235  -1.04219
 Alpha  occ. eigenvalues --   -1.01280  -0.99291  -0.99103  -0.97197  -0.94792
 Alpha  occ. eigenvalues --   -0.93721  -0.92183  -0.86986  -0.86111  -0.82470
 Alpha  occ. eigenvalues --   -0.81596  -0.79798  -0.78620  -0.77486  -0.76363
 Alpha  occ. eigenvalues --   -0.72465  -0.71622  -0.71091  -0.68949  -0.68240
 Alpha  occ. eigenvalues --   -0.66869  -0.66079  -0.65162  -0.64502  -0.63797
 Alpha  occ. eigenvalues --   -0.63417  -0.62337  -0.61809  -0.61565  -0.61301
 Alpha  occ. eigenvalues --   -0.60358  -0.59668  -0.59472  -0.58888  -0.58197
 Alpha  occ. eigenvalues --   -0.57710  -0.57563  -0.57074  -0.56730  -0.56122
 Alpha  occ. eigenvalues --   -0.55647  -0.55210  -0.54779  -0.53897  -0.53467
 Alpha  occ. eigenvalues --   -0.52923  -0.52335  -0.51901  -0.51686  -0.51122
 Alpha  occ. eigenvalues --   -0.50543  -0.50002  -0.49216  -0.48919  -0.47624
 Alpha  occ. eigenvalues --   -0.47488  -0.47166  -0.46285  -0.44628  -0.42626
 Alpha  occ. eigenvalues --   -0.41984  -0.41520  -0.41220  -0.39602  -0.38872
 Alpha  occ. eigenvalues --   -0.38714  -0.37086  -0.34110
 Alpha virt. eigenvalues --    0.17395   0.18981   0.19046   0.20209   0.20659
 Alpha virt. eigenvalues --    0.21113   0.21812   0.23010   0.23951   0.24709
 Alpha virt. eigenvalues --    0.24822   0.25969   0.26436   0.27101   0.27158

 Mulliken atomic charges:
              1
     1  C   -0.330709
     2  N   -0.790521
     3  C    0.826011
     4  O   -0.631096
     5  C    0.103985
     6  C   -0.472513
     7  C   -0.332737
     8  C   -0.331139
     9  C   -0.358699
    10  C   -0.165451
    11  C   -0.183245
    12  C   -0.353370
    13  C   -0.313121
    14  C   -0.331045
    15  C    0.094057
    16  C   -0.509271
    17  N   -0.787738
    18  C    0.766689
    19  C   -0.595854
    20  O   -0.613882
    21  C    0.824730
    22  O   -0.633706
    23  N   -0.831449
    24  C   -0.309055
    25  N   -0.842085
    26  C    0.744252
    27  C   -0.588473
    28  O   -0.591105
    29  H    0.203915
    30  H    0.223041
    31  H    0.214983
    32  H    0.385094
    33  H    0.197766
    34  H    0.142165
    35  H    0.212865
    36  H    0.159785
    37  H    0.181515
    38  H    0.162043
    39  H    0.185601
    40  H    0.217420
    41  H    0.176061
    42  H    0.164700
    43  H    0.168044
    44  H    0.183463
    45  H    0.160366
    46  H    0.152984
    47  H    0.199620
    48  H    0.175755
    49  H    0.181915
    50  H    0.186138
    51  H    0.146102
    52  H    0.227529
    53  H    0.391576
    54  H    0.211640
    55  H    0.210974
    56  H    0.177218
    57  H    0.400299
    58  H    0.164528
    59  H    0.202548
    60  H    0.193066
    61  H    0.380892
    62  H    0.217824
    63  H    0.175979
    64  H    0.201126
 Sum of Mulliken atomic charges =   0.00000

 Dipole moment (field-independent basis, Debye):
    X=              2.7659    Y=              2.6268    Z=              7.0254  Tot=              7.9942
 Quadrupole moment (field-independent basis, Debye-Ang):
   XX=           -157.4148   YY=           -173.7968   ZZ=           -172.9285
   XY=            -14.0594   XZ=             19.6940   YZ=            -13.5746

 Normal termination of Gaussian 09 at Thu Dec  5 17:11:36 2019.
