 Gaussian 09, Revision A.02,
 Gaussian 09:  EM64L-G09RevA.02 11-Jun-2009

 ---------------------------------
 #SP HF/6-31G* Geom=(ModRedundant)
 ---------------------------------

 ------------
 paramfit run
 ------------
 Symbolic Z-matrix:
 Charge =  0 Multiplicity = 1

                         Standard orientation:
 ---------------------------------------------------------------------
 Center     Atomic      Atomic             Coordinates (Angstroms)
 Number     Number       Type             X           Y           Z
 ---------------------------------------------------------------------
      1          6    20001001       -3.389538    2.802164    0.406625
      2          7    20001014       -3.891665    1.446424    0.490775
      3          6    20001002       -4.164364    0.756125   -0.641140
      4          8    20001024       -3.803319    1.124528   -1.724502
      5          6    90000001       -4.849607   -0.610310   -0.460351
      6          6    90000002       -5.497845   -1.037998   -1.781226
      7          6    90000002       -3.820560   -1.662781    0.034593
      8          6    90000002       -2.598686   -1.983857   -0.844936
      9          6    90000002       -1.384280   -1.038496   -0.754673
     10          6    20001004       -0.824200   -0.888679    0.640370
     11          6    20001004        0.329789   -1.345370    1.099171
     12          6    90000002        1.372920   -2.131005    0.341274
     13          6    90000002        2.593128   -1.302854   -0.100116
     14          6    90000002        3.358706   -0.698420    1.084563
     15          6    90000002        4.707356    0.010003    0.794868
     16          6    90000002        5.231220    0.574172    2.125556
     17          7    20001014        5.648601   -0.976177    0.281996
     18          6    20001002        6.874293   -0.611487   -0.195223
     19          6    20001001        7.572361   -1.661842   -1.028446
     20          8    20001024        7.366931    0.459731    0.025999
     21          6    20001002        4.477616    1.075567   -0.300814
     22          8    20001024        4.482650    0.762628   -1.460974
     23          7    20001014        4.173708    2.327935    0.103159
     24          6    20001001        3.996344    3.385774   -0.870351
     25          7    20001014       -5.855834   -0.541799    0.609343
     26          6    20001002       -6.933118    0.293913    0.582593
     27          6    20001001       -8.024286   -0.031624    1.581341
     28          8    20001024       -7.009554    1.226300   -0.166374
     29          1    20001035       -4.125228    3.479433   -0.011725
     30          1    20001035       -2.507291    2.826600   -0.216084
     31          1    20001035       -3.124681    3.135098    1.402296
     32          1    20001029       -4.419395    1.204742    1.296614
     33          1    20001034       -4.772611   -1.071219   -2.579892
     34          1    20001034       -5.941409   -2.022228   -1.663843
     35          1    20001034       -6.268116   -0.336552   -2.066852
     36          1    20001034       -4.381211   -2.587351    0.153171
     37          1    20001034       -3.488738   -1.378855    1.028353
     38          1    20001034       -2.262490   -2.974772   -0.553944
     39          1    20001034       -2.899910   -2.061319   -1.884473
     40          1    20001034       -1.645733   -0.060690   -1.137950
     41          1    20001034       -0.624692   -1.428511   -1.423064
     42          1    20001033       -1.447154   -0.340188    1.328264
     43          1    20001033        0.567604   -1.136735    2.130518
     44          1    20001034        0.935079   -2.585434   -0.539212
     45          1    20001034        1.711378   -2.953405    0.970319
     46          1    20001034        3.238050   -1.951349   -0.686548
     47          1    20001034        2.269040   -0.518912   -0.771852
     48          1    20001034        3.568882   -1.477695    1.814009
     49          1    20001034        2.718978    0.023935    1.577819
     50          1    20001034        5.457169   -0.253158    2.788167
     51          1    20001034        4.481380    1.186974    2.615039
     52          1    20001034        6.133538    1.150606    1.986680
     53          1    20001029        5.237934   -1.755139   -0.179828
     54          1    20001034        8.631719   -1.455360   -1.042147
     55          1    20001034        7.193358   -1.605530   -2.044473
     56          1    20001034        7.397469   -2.663986   -0.652281
     57          1    20001029        4.412522    2.597252    1.028224
     58          1    20001035        3.642439    4.270853   -0.358191
     59          1    20001035        3.262891    3.086594   -1.604628
     60          1    20001035        4.922625    3.618067   -1.385905
     61          1    20001029       -5.945323   -1.361344    1.167809
     62          1    20001034       -8.612197    0.857216    1.758249
     63          1    20001034       -7.625276   -0.398885    2.520202
     64          1    20001034       -8.671427   -0.796911    1.164991
 ---------------------------------------------------------------------

 SCF Done:  E(RHF) =  -1295.62178617     A.U. after   14 cycles

 The electronic state is 1-A.
 Alpha  occ. eigenvalues --  -20.53664 -20.52002 -20.51846 -20.51530 -15.59629
 Alpha  occ. eigenvalues --  -15.57845 -15.57529 -15.57473 -11.35984 -11.34209
 Alpha  occ. eigenvalues --  -11.33861 -11.33619 -11.29049 -11.28515 -11.24922
 Alpha  occ. eigenvalues --  -11.24886 -11.24374 -11.24055 -11.23339 -11.22699
 Alpha  occ. eigenvalues --  -11.22472 -11.22471 -11.22274 -11.22218 -11.22038
 Alpha  occ. eigenvalues --  -11.21765 -11.21607 -11.20868  -1.40600  -1.39314
 Alpha  occ. eigenvalues --   -1.38704  -1.38036  -1.25451  -1.23499  -1.22556
 Alpha  occ. eigenvalues --   -1.22078  -1.10733  -1.09259  -1.07170  -1.04218
 Alpha  occ. eigenvalues --   -1.01234  -0.99327  -0.98704  -0.95514  -0.95090
 Alpha  occ. eigenvalues --   -0.94537  -0.92179  -0.87218  -0.85686  -0.82809
 Alpha  occ. eigenvalues --   -0.81346  -0.79445  -0.78781  -0.77181  -0.76821
 Alpha  occ. eigenvalues --   -0.71930  -0.71282  -0.71111  -0.68943  -0.67967
 Alpha  occ. eigenvalues --   -0.66633  -0.65877  -0.64490  -0.64006  -0.63700
 Alpha  occ. eigenvalues --   -0.62579  -0.62247  -0.61739  -0.61378  -0.61103
 Alpha  occ. eigenvalues --   -0.60912  -0.59877  -0.59303  -0.58706  -0.58425
 Alpha  occ. eigenvalues --   -0.58173  -0.57840  -0.56693  -0.56331  -0.56178
 Alpha  occ. eigenvalues --   -0.55534  -0.54844  -0.54700  -0.54540  -0.53898
 Alpha  occ. eigenvalues --   -0.53029  -0.52813  -0.52508  -0.52121  -0.51539
 Alpha  occ. eigenvalues --   -0.51047  -0.50319  -0.49732  -0.49062  -0.48529
 Alpha  occ. eigenvalues --   -0.48348  -0.47067  -0.46324  -0.44493  -0.42872
 Alpha  occ. eigenvalues --   -0.41966  -0.41447  -0.41016  -0.39300  -0.38784
 Alpha  occ. eigenvalues --   -0.38319  -0.38225  -0.34480
 Alpha virt. eigenvalues --    0.17582   0.18783   0.19707   0.19987   0.20200
 Alpha virt. eigenvalues --    0.21647   0.22017   0.23200   0.23430   0.24029
 Alpha virt. eigenvalues --    0.25153   0.25691   0.26509   0.27164   0.27650

 Mulliken atomic charges:
              1
     1  C   -0.279355
     2  N   -0.783472
     3  C    0.822078
     4  O   -0.627983
     5  C    0.102563
     6  C   -0.472807
     7  C   -0.335269
     8  C   -0.313815
     9  C   -0.373457
    10  C   -0.172539
    11  C   -0.179453
    12  C   -0.353295
    13  C   -0.310286
    14  C   -0.328986
    15  C    0.091060
    16  C   -0.509532
    17  N   -0.787634
    18  C    0.767311
    19  C   -0.595692
    20  O   -0.613957
    21  C    0.820615
    22  O   -0.639083
    23  N   -0.806054
    24  C   -0.275673
    25  N   -0.843130
    26  C    0.744542
    27  C   -0.588672
    28  O   -0.591613
    29  H    0.186734
    30  H    0.198846
    31  H    0.161946
    32  H    0.390971
    33  H    0.199026
    34  H    0.144110
    35  H    0.212665
    36  H    0.162120
    37  H    0.180149
    38  H    0.165254
    39  H    0.180707
    40  H    0.214560
    41  H    0.174036
    42  H    0.178223
    43  H    0.169307
    44  H    0.177010
    45  H    0.159888
    46  H    0.150965
    47  H    0.199803
    48  H    0.173068
    49  H    0.184685
    50  H    0.183441
    51  H    0.148124
    52  H    0.226551
    53  H    0.389857
    54  H    0.211063
    55  H    0.209581
    56  H    0.176259
    57  H    0.395109
    58  H    0.164528
    59  H    0.200295
    60  H    0.184950
    61  H    0.382542
    62  H    0.218680
    63  H    0.177115
    64  H    0.201420
 Sum of Mulliken atomic charges =   0.00000

 Dipole moment (field-independent basis, Debye):
    X=             -3.1407    Y=             -4.3215    Z=              6.6299  Tot=              8.5144
 Quadrupole moment (field-independent basis, Debye-Ang):
   XX=           -186.9943   YY=           -157.9271   ZZ=           -173.9060
   XY=             10.0819   XZ=            -18.7771   YZ=             10.3849

 Normal termination of Gaussian 09 at Thu Dec  5 17:31:17 2019.
