 Gaussian 09, Revision A.02,
 Gaussian 09:  EM64L-G09RevA.02 11-Jun-2009

 ---------------------------------
 #SP HF/6-31G* Geom=(ModRedundant)
 ---------------------------------

 ------------
 paramfit run
 ------------
 Symbolic Z-matrix:
 Charge =  0 Multiplicity = 1

                         Standard orientation:
 ---------------------------------------------------------------------
 Center     Atomic      Atomic             Coordinates (Angstroms)
 Number     Number       Type             X           Y           Z
 ---------------------------------------------------------------------
      1          6    20001001       -2.232411    0.944988   -2.805792
      2          7    20001014       -1.804809    0.702107   -1.443658
      3          6    20001002       -2.596419    1.075041   -0.411000
      4          8    20001024       -3.742123    1.398795   -0.560306
      5          6    90000001       -1.993940    0.933029    0.998339
      6          6    90000002       -2.784778    1.799422    1.984128
      7          6    90000002       -1.989561   -0.558778    1.429729
      8          6    90000002       -3.328784   -1.311040    1.530815
      9          6    90000002       -3.924170   -1.889170    0.231615
     10          6    20001004       -3.003657   -2.840468   -0.496373
     11          6    20001004       -1.990088   -2.533106   -1.289443
     12          6    90000002       -1.502984   -1.153964   -1.664212
     13          6    90000002       -0.236334   -0.703804   -0.914199
     14          6    90000002        0.966905   -1.617832   -1.181933
     15          6    90000002        2.349640   -1.181156   -0.632383
     16          6    90000002        3.358373   -2.288162   -0.979434
     17          7    20001014        2.741449    0.056566   -1.292733
     18          6    20001002        3.849619    0.752316   -0.904217
     19          6    20001001        3.916297    2.176769   -1.405509
     20          8    20001024        4.709988    0.275946   -0.217210
     21          6    20001002        2.210651   -0.899486    0.880914
     22          8    20001024        1.809272    0.166170    1.264583
     23          7    20001014        2.456761   -1.921188    1.729169
     24          6    20001001        2.394470   -1.711835    3.161124
     25          7    20001014       -0.576381    1.322790    0.991659
     26          6    20001002       -0.134243    2.563325    0.637742
     27          6    20001001        1.294861    2.873287    1.032335
     28          8    20001024       -0.819026    3.349438    0.046777
     29          1    20001035       -2.285487    2.004387   -3.028965
     30          1    20001035       -3.208927    0.511476   -2.964559
     31          1    20001035       -1.526746    0.474312   -3.478736
     32          1    20001029       -0.827330    0.681558   -1.269304
     33          1    20001034       -3.831740    1.537124    1.982401
     34          1    20001034       -2.386603    1.662703    2.985128
     35          1    20001034       -2.707726    2.842526    1.714082
     36          1    20001034       -1.537316   -0.576310    2.418863
     37          1    20001034       -1.314707   -1.103782    0.777177
     38          1    20001034       -3.164249   -2.141285    2.211431
     39          1    20001034       -4.074690   -0.679071    2.001574
     40          1    20001034       -4.204482   -1.086193   -0.437725
     41          1    20001034       -4.847041   -2.392057    0.498538
     42          1    20001033       -3.206957   -3.887150   -0.337502
     43          1    20001033       -1.436775   -3.351864   -1.722158
     44          1    20001034       -2.280103   -0.420091   -1.488188
     45          1    20001034       -1.305998   -1.135833   -2.735408
     46          1    20001034       -0.019978    0.317688   -1.214396
     47          1    20001034       -0.444194   -0.664582    0.146974
     48          1    20001034        1.088074   -1.750181   -2.254936
     49          1    20001034        0.755575   -2.597766   -0.770329
     50          1    20001034        3.460468   -2.339036   -2.057196
     51          1    20001034        3.009814   -3.258044   -0.639997
     52          1    20001034        4.331866   -2.087044   -0.558006
     53          1    20001029        1.989972    0.620385   -1.618468
     54          1    20001034        4.941683    2.512868   -1.379404
     55          1    20001034        3.327096    2.804345   -0.743605
     56          1    20001034        3.522368    2.274456   -2.411321
     57          1    20001029        3.003506   -2.683566    1.404885
     58          1    20001035        2.501266   -2.668634    3.655140
     59          1    20001035        1.439059   -1.283242    3.425929
     60          1    20001035        3.177229   -1.043309    3.504807
     61          1    20001029        0.016287    0.797281    1.595092
     62          1    20001034        1.667886    3.665291    0.399441
     63          1    20001034        1.940439    2.005968    0.951473
     64          1    20001034        1.313759    3.215711    2.061990
 ---------------------------------------------------------------------

 SCF Done:  E(RHF) =  -1295.20637447     A.U. after   15 cycles

 The electronic state is 1-A.
 Alpha  occ. eigenvalues --  -20.55203 -20.53886 -20.51647 -20.51126 -15.60842
 Alpha  occ. eigenvalues --  -15.59586 -15.56731 -15.54614 -11.37102 -11.35981
 Alpha  occ. eigenvalues --  -11.33795 -11.32624 -11.30705 -11.28031 -11.27496
 Alpha  occ. eigenvalues --  -11.25464 -11.24824 -11.23708 -11.23677 -11.23450
 Alpha  occ. eigenvalues --  -11.22740 -11.22203 -11.21426 -11.21204 -11.20929
 Alpha  occ. eigenvalues --  -11.20829 -11.20006 -11.18390  -1.42950  -1.40479
 Alpha  occ. eigenvalues --   -1.39429  -1.38289  -1.29418  -1.25908  -1.25424
 Alpha  occ. eigenvalues --   -1.23163  -1.11533  -1.09458  -1.07154  -1.05228
 Alpha  occ. eigenvalues --   -1.00914  -1.00377  -0.97659  -0.97532  -0.97244
 Alpha  occ. eigenvalues --   -0.95786  -0.93502  -0.90144  -0.87750  -0.85894
 Alpha  occ. eigenvalues --   -0.82529  -0.81952  -0.79955  -0.79320  -0.77627
 Alpha  occ. eigenvalues --   -0.73834  -0.73451  -0.71608  -0.69854  -0.68992
 Alpha  occ. eigenvalues --   -0.68656  -0.67139  -0.66058  -0.65603  -0.65179
 Alpha  occ. eigenvalues --   -0.64110  -0.63450  -0.63079  -0.62466  -0.61226
 Alpha  occ. eigenvalues --   -0.60905  -0.60705  -0.59635  -0.59275  -0.58913
 Alpha  occ. eigenvalues --   -0.58106  -0.57784  -0.57543  -0.57499  -0.56838
 Alpha  occ. eigenvalues --   -0.56245  -0.55844  -0.55539  -0.54636  -0.54144
 Alpha  occ. eigenvalues --   -0.53452  -0.52870  -0.52131  -0.51975  -0.51634
 Alpha  occ. eigenvalues --   -0.51109  -0.50896  -0.49925  -0.48566  -0.48369
 Alpha  occ. eigenvalues --   -0.47376  -0.45972  -0.45206  -0.45110  -0.43835
 Alpha  occ. eigenvalues --   -0.42857  -0.41903  -0.40872  -0.40804  -0.40097
 Alpha  occ. eigenvalues --   -0.37341  -0.33857  -0.26666
 Alpha virt. eigenvalues --    0.16190   0.16753   0.18407   0.19143   0.20118
 Alpha virt. eigenvalues --    0.20476   0.21427   0.22157   0.23614   0.24560
 Alpha virt. eigenvalues --    0.25790   0.26098   0.26490   0.26873   0.27682

 Mulliken atomic charges:
              1
     1  C   -0.309260
     2  N   -0.910835
     3  C    0.833343
     4  O   -0.631538
     5  C    0.095227
     6  C   -0.466094
     7  C   -0.371198
     8  C   -0.298749
     9  C   -0.375589
    10  C   -0.189130
    11  C   -0.137952
    12  C   -0.450530
    13  C   -0.377316
    14  C   -0.311649
    15  C    0.086030
    16  C   -0.511351
    17  N   -0.792283
    18  C    0.753906
    19  C   -0.600250
    20  O   -0.609727
    21  C    0.841682
    22  O   -0.672770
    23  N   -0.801736
    24  C   -0.281941
    25  N   -0.870909
    26  C    0.731704
    27  C   -0.618324
    28  O   -0.606797
    29  H    0.214273
    30  H    0.210364
    31  H    0.169953
    32  H    0.477417
    33  H    0.192182
    34  H    0.144875
    35  H    0.213791
    36  H    0.169743
    37  H    0.199325
    38  H    0.158294
    39  H    0.179104
    40  H    0.210115
    41  H    0.170713
    42  H    0.169820
    43  H    0.148307
    44  H    0.329114
    45  H    0.176326
    46  H    0.124573
    47  H    0.204272
    48  H    0.183824
    49  H    0.192360
    50  H    0.192625
    51  H    0.153628
    52  H    0.228645
    53  H    0.398327
    54  H    0.216561
    55  H    0.213222
    56  H    0.183181
    57  H    0.406145
    58  H    0.178515
    59  H    0.190838
    60  H    0.192615
    61  H    0.432234
    62  H    0.185828
    63  H    0.251869
    64  H    0.191059
 Sum of Mulliken atomic charges =   0.00000

 Dipole moment (field-independent basis, Debye):
    X=              4.1757    Y=             -5.3511    Z=              0.5799  Tot=              6.8122
 Quadrupole moment (field-independent basis, Debye-Ang):
   XX=           -200.0207   YY=           -178.6994   ZZ=           -156.3715
   XY=              5.9559   XZ=             -4.4972   YZ=             -6.4470

 Normal termination of Gaussian 09 at Thu Dec  5 18:41:53 2019.
