 Gaussian 09, Revision A.02,
 Gaussian 09:  EM64L-G09RevA.02 11-Jun-2009

 ---------------------------------
 #SP HF/6-31G* Geom=(ModRedundant)
 ---------------------------------

 ------------
 paramfit run
 ------------
 Symbolic Z-matrix:
 Charge =  0 Multiplicity = 1

                         Standard orientation:
 ---------------------------------------------------------------------
 Center     Atomic      Atomic             Coordinates (Angstroms)
 Number     Number       Type             X           Y           Z
 ---------------------------------------------------------------------
      1          6    20001001       -3.031836    2.691517    0.282027
      2          7    20001014       -3.663388    1.396368    0.426857
      3          6    20001002       -4.001697    0.683577   -0.672954
      4          8    20001024       -3.606359    0.964060   -1.770580
      5          6    90000001       -4.816555   -0.599901   -0.431958
      6          6    90000002       -5.503063   -1.023996   -1.734529
      7          6    90000002       -3.894778   -1.722982    0.116328
      8          6    90000002       -2.709746   -2.201998   -0.741506
      9          6    90000002       -1.409210   -1.375830   -0.689633
     10          6    20001004       -0.837467   -1.215955    0.699550
     11          6    20001004        0.350318   -1.606563    1.132390
     12          6    90000002        1.428817   -2.310440    0.344259
     13          6    90000002        2.586928   -1.398526   -0.099316
     14          6    90000002        3.331582   -0.768157    1.085183
     15          6    90000002        4.627870    0.029716    0.789071
     16          6    90000002        5.136214    0.601897    2.122355
     17          7    20001014        5.621319   -0.885177    0.243582
     18          6    20001002        6.813667   -0.434714   -0.244729
     19          6    20001001        7.563391   -1.423311   -1.108091
     20          8    20001024        7.240987    0.661487   -0.010457
     21          6    20001002        4.313618    1.098155   -0.282567
     22          8    20001024        4.319871    0.807203   -1.448430
     23          7    20001014        3.937551    2.321153    0.149673
     24          6    20001001        3.678010    3.383005   -0.800752
     25          7    20001014       -5.811546   -0.384014    0.628615
     26          6    20001002       -6.802486    0.550174    0.557878
     27          6    20001001       -7.920308    0.379235    1.565535
     28          8    20001024       -6.787792    1.449486   -0.234057
     29          1    20001035       -3.698132    3.416684   -0.170886
     30          1    20001035       -2.151281    2.600998   -0.336967
     31          1    20001035       -2.736046    3.043408    1.262351
     32          1    20001029       -4.212255    1.245059    1.240575
     33          1    20001034       -4.784352   -1.164828   -2.527343
     34          1    20001034       -6.040222   -1.953929   -1.573528
     35          1    20001034       -6.201450   -0.265221   -2.056154
     36          1    20001034       -4.542669   -2.582179    0.275190
     37          1    20001034       -3.537103   -1.426404    1.097343
     38          1    20001034       -2.471517   -3.206159   -0.403090
     39          1    20001034       -3.016889   -2.298428   -1.777719
     40          1    20001034       -1.574307   -0.396279   -1.119268
     41          1    20001034       -0.691013   -1.868614   -1.335535
     42          1    20001033       -1.482794   -0.720719    1.406942
     43          1    20001033        0.590936   -1.401915    2.163885
     44          1    20001034        1.006575   -2.775793   -0.538138
     45          1    20001034        1.828687   -3.120895    0.952420
     46          1    20001034        3.262133   -1.993986   -0.707508
     47          1    20001034        2.203147   -0.624758   -0.751102
     48          1    20001034        3.602323   -1.545554    1.796442
     49          1    20001034        2.655393   -0.096983    1.601560
     50          1    20001034        5.424666   -0.221239    2.765646
     51          1    20001034        4.357022    1.156824    2.634503
     52          1    20001034        5.997892    1.236959    1.981123
     53          1    20001029        5.253443   -1.680198   -0.226866
     54          1    20001034        8.607197   -1.149669   -1.133567
     55          1    20001034        7.165359   -1.372847   -2.117124
     56          1    20001034        7.458335   -2.441189   -0.748546
     57          1    20001029        4.173623    2.588336    1.076061
     58          1    20001035        3.277035    4.234380   -0.266617
     59          1    20001035        2.953300    3.051120   -1.529638
     60          1    20001035        4.579353    3.683017   -1.325470
     61          1    20001029       -5.980377   -1.163950    1.224218
     62          1    20001034       -8.419065    1.328261    1.698071
     63          1    20001034       -7.559055    0.019326    2.522359
     64          1    20001034       -8.638702   -0.338252    1.182228
 ---------------------------------------------------------------------

 SCF Done:  E(RHF) =  -1295.62116552     A.U. after   14 cycles

 The electronic state is 1-A.
 Alpha  occ. eigenvalues --  -20.53668 -20.51976 -20.51826 -20.51501 -15.59638
 Alpha  occ. eigenvalues --  -15.57824 -15.57494 -15.57445 -11.35989 -11.34183
 Alpha  occ. eigenvalues --  -11.33845 -11.33592 -11.29060 -11.28487 -11.24902
 Alpha  occ. eigenvalues --  -11.24854 -11.24379 -11.24096 -11.23305 -11.22714
 Alpha  occ. eigenvalues --  -11.22445 -11.22415 -11.22227 -11.22214 -11.22041
 Alpha  occ. eigenvalues --  -11.21745 -11.21628 -11.20877  -1.40603  -1.39287
 Alpha  occ. eigenvalues --   -1.38685  -1.38008  -1.25456  -1.23471  -1.22534
 Alpha  occ. eigenvalues --   -1.22051  -1.10719  -1.09260  -1.07158  -1.04218
 Alpha  occ. eigenvalues --   -1.01235  -0.99331  -0.98684  -0.95491  -0.95070
 Alpha  occ. eigenvalues --   -0.94520  -0.92177  -0.87187  -0.85677  -0.82788
 Alpha  occ. eigenvalues --   -0.81348  -0.79421  -0.78789  -0.77158  -0.76797
 Alpha  occ. eigenvalues --   -0.71988  -0.71277  -0.71120  -0.68937  -0.67956
 Alpha  occ. eigenvalues --   -0.66569  -0.65867  -0.64457  -0.64051  -0.63690
 Alpha  occ. eigenvalues --   -0.62569  -0.62177  -0.61721  -0.61358  -0.61054
 Alpha  occ. eigenvalues --   -0.60901  -0.59856  -0.59274  -0.58726  -0.58437
 Alpha  occ. eigenvalues --   -0.58081  -0.57859  -0.56815  -0.56282  -0.56147
 Alpha  occ. eigenvalues --   -0.55573  -0.54843  -0.54672  -0.54511  -0.53874
 Alpha  occ. eigenvalues --   -0.53003  -0.52805  -0.52519  -0.52103  -0.51535
 Alpha  occ. eigenvalues --   -0.51055  -0.50358  -0.49711  -0.48880  -0.48522
 Alpha  occ. eigenvalues --   -0.48349  -0.47225  -0.46239  -0.44467  -0.42867
 Alpha  occ. eigenvalues --   -0.41975  -0.41418  -0.40990  -0.39297  -0.38758
 Alpha  occ. eigenvalues --   -0.38301  -0.38200  -0.34438
 Alpha virt. eigenvalues --    0.17781   0.18778   0.19732   0.19991   0.20178
 Alpha virt. eigenvalues --    0.21674   0.22045   0.23228   0.23561   0.24081
 Alpha virt. eigenvalues --    0.25012   0.25728   0.26481   0.27182   0.27553

 Mulliken atomic charges:
              1
     1  C   -0.279062
     2  N   -0.783297
     3  C    0.822294
     4  O   -0.628041
     5  C    0.102852
     6  C   -0.472819
     7  C   -0.336052
     8  C   -0.316399
     9  C   -0.372641
    10  C   -0.167349
    11  C   -0.181775
    12  C   -0.353250
    13  C   -0.310077
    14  C   -0.328900
    15  C    0.091073
    16  C   -0.509474
    17  N   -0.787645
    18  C    0.767315
    19  C   -0.595694
    20  O   -0.614035
    21  C    0.820603
    22  O   -0.638823
    23  N   -0.806187
    24  C   -0.275755
    25  N   -0.843177
    26  C    0.744535
    27  C   -0.588666
    28  O   -0.591479
    29  H    0.186421
    30  H    0.199236
    31  H    0.161648
    32  H    0.390619
    33  H    0.199024
    34  H    0.144069
    35  H    0.212796
    36  H    0.162687
    37  H    0.178712
    38  H    0.165951
    39  H    0.181607
    40  H    0.216056
    41  H    0.173323
    42  H    0.176178
    43  H    0.169130
    44  H    0.177426
    45  H    0.159519
    46  H    0.150958
    47  H    0.200008
    48  H    0.173083
    49  H    0.184322
    50  H    0.183453
    51  H    0.147899
    52  H    0.226496
    53  H    0.389937
    54  H    0.210992
    55  H    0.209655
    56  H    0.176276
    57  H    0.394977
    58  H    0.164153
    59  H    0.200655
    60  H    0.185027
    61  H    0.382435
    62  H    0.218723
    63  H    0.177047
    64  H    0.201430
 Sum of Mulliken atomic charges =   0.00000

 Dipole moment (field-independent basis, Debye):
    X=             -3.3783    Y=             -4.1722    Z=              6.7670  Tot=              8.6378
 Quadrupole moment (field-independent basis, Debye-Ang):
   XX=           -180.8042   YY=           -159.9540   ZZ=           -174.2176
   XY=              6.5587   XZ=            -19.2698   YZ=             10.9386

 Normal termination of Gaussian 09 at Thu Dec  5 17:36:41 2019.
