 Gaussian 09, Revision A.02,
 Gaussian 09:  EM64L-G09RevA.02 11-Jun-2009

 ---------------------------------
 #SP HF/6-31G* Geom=(ModRedundant)
 ---------------------------------

 ------------
 paramfit run
 ------------
 Symbolic Z-matrix:
 Charge =  0 Multiplicity = 1

                         Standard orientation:
 ---------------------------------------------------------------------
 Center     Atomic      Atomic             Coordinates (Angstroms)
 Number     Number       Type             X           Y           Z
 ---------------------------------------------------------------------
      1          6    20001001       -3.603162    0.753668   -2.477270
      2          7    20001014       -2.717517    0.588089   -1.343488
      3          6    20001002       -3.227261    0.536440   -0.090650
      4          8    20001024       -4.399544    0.396837    0.123850
      5          6    90000001       -2.207708    0.527950    1.062530
      6          6    90000002       -2.904029    0.932723    2.366040
      7          6    90000002       -1.547823   -0.872720    1.182015
      8          6    90000002       -2.436832   -2.094668    1.475514
      9          6    90000002       -3.163881   -2.752432    0.285815
     10          6    20001004       -2.243229   -3.205153   -0.823114
     11          6    20001004       -1.420156   -2.459611   -1.542470
     12          6    90000002       -1.198103   -0.970126   -1.433469
     13          6    90000002        0.093574   -0.574360   -0.695564
     14          6    90000002        1.357321   -1.097284   -1.391558
     15          6    90000002        2.733010   -0.623367   -0.855340
     16          6    90000002        3.821567   -1.333343   -1.676574
     17          7    20001014        2.837267    0.815892   -1.053321
     18          6    20001002        3.882668    1.531747   -0.545637
     19          6    20001001        3.667552    3.027134   -0.497189
     20          8    20001024        4.898654    1.019855   -0.165004
     21          6    20001002        2.794041   -0.908944    0.662371
     22          8    20001024        2.310739   -0.135214    1.444477
     23          7    20001014        3.312119   -2.093668    1.052250
     24          6    20001001        3.445640   -2.403482    2.460933
     25          7    20001014       -1.093288    1.440633    0.768406
     26          6    20001002       -1.246529    2.779484    0.559439
     27          6    20001001        0.030550    3.591039    0.627029
     28          8    20001024       -2.310310    3.279884    0.326827
     29          1    20001035       -4.090127    1.722053   -2.470542
     30          1    20001035       -4.363794   -0.013082   -2.461252
     31          1    20001035       -3.023544    0.652948   -3.386254
     32          1    20001029       -1.792273    0.937745   -1.432646
     33          1    20001034       -3.738118    0.282620    2.581897
     34          1    20001034       -2.193619    0.882185    3.185796
     35          1    20001034       -3.284822    1.940903    2.291899
     36          1    20001034       -0.835022   -0.791881    1.999694
     37          1    20001034       -0.963095   -1.055285    0.285888
     38          1    20001034       -1.789606   -2.846423    1.917759
     39          1    20001034       -3.171212   -1.845478    2.234437
     40          1    20001034       -3.900394   -2.071904   -0.121364
     41          1    20001034       -3.720717   -3.596252    0.677904
     42          1    20001033       -2.268770   -4.261219   -1.038025
     43          1    20001033       -0.831006   -2.960685   -2.294526
     44          1    20001034       -2.034155   -0.501346   -0.928763
     45          1    20001034       -1.175747   -0.549221   -2.437926
     46          1    20001034        0.113332    0.509416   -0.621992
     47          1    20001034        0.050895   -0.941092    0.321547
     48          1    20001034        1.326608   -0.828534   -2.445296
     49          1    20001034        1.354020   -2.180048   -1.347265
     50          1    20001034        3.759921   -0.991564   -2.703203
     51          1    20001034        3.671414   -2.407961   -1.682366
     52          1    20001034        4.810568   -1.109372   -1.305824
     53          1    20001029        1.971860    1.304956   -1.077828
     54          1    20001034        4.626288    3.520596   -0.448390
     55          1    20001034        3.106277    3.266943    0.400913
     56          1    20001034        3.111268    3.387587   -1.355678
     57          1    20001029        3.903829   -2.581250    0.421810
     58          1    20001035        3.762914   -3.433296    2.559631
     59          1    20001035        2.492465   -2.279671    2.953633
     60          1    20001035        4.169806   -1.758592    2.948227
     61          1    20001029       -0.198267    1.142045    1.086729
     62          1    20001034       -0.113359    4.514291    0.084932
     63          1    20001034        0.879622    3.055268    0.217667
     64          1    20001034        0.246923    3.828922    1.663559
 ---------------------------------------------------------------------

 SCF Done:  E(RHF) =  -1295.32768805     A.U. after   15 cycles

 The electronic state is 1-A.
 Alpha  occ. eigenvalues --  -20.53571 -20.53534 -20.53286 -20.52681 -15.59327
 Alpha  occ. eigenvalues --  -15.59032 -15.58898 -15.57410 -11.35865 -11.35501
 Alpha  occ. eigenvalues --  -11.35340 -11.34440 -11.29541 -11.28842 -11.26216
 Alpha  occ. eigenvalues --  -11.25832 -11.24439 -11.23807 -11.23731 -11.22617
 Alpha  occ. eigenvalues --  -11.21950 -11.21845 -11.21745 -11.21597 -11.21353
 Alpha  occ. eigenvalues --  -11.20510 -11.20079 -11.19094  -1.40954  -1.40708
 Alpha  occ. eigenvalues --   -1.39649  -1.39596  -1.27135  -1.24857  -1.24423
 Alpha  occ. eigenvalues --   -1.24053  -1.13260  -1.09050  -1.07044  -1.05440
 Alpha  occ. eigenvalues --   -1.01820  -1.00232  -0.99586  -0.97391  -0.96460
 Alpha  occ. eigenvalues --   -0.95594  -0.91670  -0.88752  -0.86262  -0.85715
 Alpha  occ. eigenvalues --   -0.82306  -0.80718  -0.79507  -0.78476  -0.78097
 Alpha  occ. eigenvalues --   -0.73259  -0.72838  -0.71311  -0.70828  -0.69006
 Alpha  occ. eigenvalues --   -0.68071  -0.66626  -0.65958  -0.65685  -0.64631
 Alpha  occ. eigenvalues --   -0.63878  -0.63166  -0.62986  -0.62509  -0.62180
 Alpha  occ. eigenvalues --   -0.60750  -0.60230  -0.60121  -0.59660  -0.59014
 Alpha  occ. eigenvalues --   -0.58235  -0.57443  -0.56984  -0.56868  -0.56604
 Alpha  occ. eigenvalues --   -0.56243  -0.56186  -0.55818  -0.55486  -0.54336
 Alpha  occ. eigenvalues --   -0.53930  -0.52948  -0.52762  -0.52455  -0.52101
 Alpha  occ. eigenvalues --   -0.51779  -0.51077  -0.50540  -0.50219  -0.48455
 Alpha  occ. eigenvalues --   -0.47711  -0.46830  -0.45128  -0.43155  -0.42700
 Alpha  occ. eigenvalues --   -0.42375  -0.41793  -0.40294  -0.40009  -0.39442
 Alpha  occ. eigenvalues --   -0.38275  -0.34954  -0.31696
 Alpha virt. eigenvalues --    0.16521   0.17743   0.18340   0.18872   0.19002
 Alpha virt. eigenvalues --    0.20116   0.21647   0.22155   0.23248   0.25010
 Alpha virt. eigenvalues --    0.25187   0.25739   0.26569   0.26760   0.27215

 Mulliken atomic charges:
              1
     1  C   -0.271803
     2  N   -0.840329
     3  C    0.812526
     4  O   -0.614009
     5  C    0.105922
     6  C   -0.467642
     7  C   -0.394558
     8  C   -0.286928
     9  C   -0.371450
    10  C   -0.190454
    11  C   -0.140647
    12  C   -0.464340
    13  C   -0.399337
    14  C   -0.303183
    15  C    0.087244
    16  C   -0.510086
    17  N   -0.794175
    18  C    0.764917
    19  C   -0.603585
    20  O   -0.609799
    21  C    0.831396
    22  O   -0.660932
    23  N   -0.804178
    24  C   -0.277552
    25  N   -0.874448
    26  C    0.749282
    27  C   -0.587905
    28  O   -0.595356
    29  H    0.197787
    30  H    0.205382
    31  H    0.164797
    32  H    0.429579
    33  H    0.196728
    34  H    0.152969
    35  H    0.208006
    36  H    0.180069
    37  H    0.187053
    38  H    0.158088
    39  H    0.170048
    40  H    0.207772
    41  H    0.171461
    42  H    0.174799
    43  H    0.163656
    44  H    0.282369
    45  H    0.156660
    46  H    0.155196
    47  H    0.266115
    48  H    0.172295
    49  H    0.183992
    50  H    0.187192
    51  H    0.151835
    52  H    0.226020
    53  H    0.393028
    54  H    0.218979
    55  H    0.205308
    56  H    0.179740
    57  H    0.400307
    58  H    0.170694
    59  H    0.195709
    60  H    0.187951
    61  H    0.419024
    62  H    0.215656
    63  H    0.163639
    64  H    0.211506
 Sum of Mulliken atomic charges =   0.00000

 Dipole moment (field-independent basis, Debye):
    X=              3.8745    Y=             -2.2835    Z=             -1.9655  Tot=              4.9081
 Quadrupole moment (field-independent basis, Debye-Ang):
   XX=           -210.0276   YY=           -163.8279   ZZ=           -164.6402
   XY=              1.6437   XZ=              2.1326   YZ=             -5.6187

 Normal termination of Gaussian 09 at Thu Dec  5 17:08:37 2019.
