 Gaussian 09, Revision A.02,
 Gaussian 09:  EM64L-G09RevA.02 11-Jun-2009

 ---------------------------------
 #SP HF/6-31G* Geom=(ModRedundant)
 ---------------------------------

 ------------
 paramfit run
 ------------
 Symbolic Z-matrix:
 Charge =  0 Multiplicity = 1

                         Standard orientation:
 ---------------------------------------------------------------------
 Center     Atomic      Atomic             Coordinates (Angstroms)
 Number     Number       Type             X           Y           Z
 ---------------------------------------------------------------------
      1          6    20001001       -4.313235    2.911362    0.887625
      2          7    20001014       -4.408556    1.474745    0.731773
      3          6    20001002       -4.516551    0.935642   -0.505084
      4          8    20001024       -4.314290    1.567967   -1.504585
      5          6    90000001       -4.780835   -0.579395   -0.569904
      6          6    90000002       -5.329924   -0.945762   -1.952698
      7          6    90000002       -3.478975   -1.363067   -0.249560
      8          6    90000002       -2.249317   -1.170794   -1.155435
      9          6    90000002       -1.348906    0.051871   -0.889004
     10          6    20001004       -0.803117    0.118434    0.518107
     11          6    20001004        0.227936   -0.545368    1.015155
     12          6    90000002        1.114306   -1.535460    0.298344
     13          6    90000002        2.483139   -0.971274   -0.123029
     14          6    90000002        3.324400   -0.503545    1.072137
     15          6    90000002        4.792136   -0.078689    0.807763
     16          6    90000002        5.385133    0.399872    2.142973
     17          7    20001014        5.533590   -1.240368    0.336296
     18          6    20001002        6.817807   -1.132417   -0.113359
     19          6    20001001        7.315783   -2.316172   -0.910571
     20          8    20001024        7.505519   -0.173800    0.104010
     21          6    20001002        4.801378    0.988077   -0.310562
     22          8    20001024        4.772123    0.656001   -1.465031
     23          7    20001014        4.739441    2.283863    0.065049
     24          6    20001001        4.795658    3.335369   -0.929625
     25          7    20001014       -5.725460   -0.980619    0.482775
     26          6    20001002       -6.995147   -0.493862    0.585897
     27          6    20001001       -7.912504   -1.279267    1.500071
     28          8    20001024       -7.359262    0.490163    0.006885
     29          1    20001035       -5.225103    3.411509    0.582178
     30          1    20001035       -3.497295    3.289997    0.289628
     31          1    20001035       -4.116825    3.133806    1.928920
     32          1    20001029       -4.816579    0.961190    1.477470
     33          1    20001034       -4.654671   -0.636683   -2.735919
     34          1    20001034       -5.472819   -2.020645   -2.011395
     35          1    20001034       -6.276897   -0.454916   -2.123693
     36          1    20001034       -3.750912   -2.415155   -0.298350
     37          1    20001034       -3.204601   -1.167504    0.782309
     38          1    20001034       -1.636485   -2.059265   -1.034301
     39          1    20001034       -2.554355   -1.155094   -2.196626
     40          1    20001034       -1.889776    0.964729   -1.102342
     41          1    20001034       -0.535163    0.012094   -1.604597
     42          1    20001033       -1.322414    0.792398    1.180086
     43          1    20001033        0.477834   -0.365733    2.049101
     44          1    20001034        0.616615   -1.913827   -0.586307
     45          1    20001034        1.270214   -2.394823    0.949329
     46          1    20001034        3.001999   -1.745464   -0.681408
     47          1    20001034        2.334779   -0.153319   -0.815683
     48          1    20001034        3.360654   -1.293445    1.819318
     49          1    20001034        2.827287    0.340098    1.536351
     50          1    20001034        5.428995   -0.441626    2.824543
     51          1    20001034        4.758690    1.157550    2.602182
     52          1    20001034        6.385920    0.785733    2.019378
     53          1    20001029        4.989142   -1.933492   -0.123996
     54          1    20001034        8.395089   -2.321126   -0.898914
     55          1    20001034        6.979040   -2.208107   -1.937241
     56          1    20001034        6.939130   -3.256693   -0.523357
     57          1    20001029        5.004699    2.520576    0.991826
     58          1    20001035        4.610193    4.283074   -0.441382
     59          1    20001035        4.035176    3.170075   -1.678605
     60          1    20001035        5.761303    3.371247   -1.423584
     61          1    20001029       -5.559264   -1.873368    0.891341
     62          1    20001034       -8.720616   -0.637313    1.819171
     63          1    20001034       -7.391819   -1.669994    2.367117
     64          1    20001034       -8.331979   -2.115819    0.950504
 ---------------------------------------------------------------------

 SCF Done:  E(RHF) =  -1295.62105838     A.U. after   14 cycles

 The electronic state is 1-A.
 Alpha  occ. eigenvalues --  -20.53618 -20.52102 -20.51824 -20.51651 -15.59567
 Alpha  occ. eigenvalues --  -15.57949 -15.57583 -15.57497 -11.35937 -11.34311
 Alpha  occ. eigenvalues --  -11.33832 -11.33735 -11.28972 -11.28626 -11.25026
 Alpha  occ. eigenvalues --  -11.24915 -11.24336 -11.23902 -11.23468 -11.22682
 Alpha  occ. eigenvalues --  -11.22671 -11.22572 -11.22457 -11.22239 -11.22029
 Alpha  occ. eigenvalues --  -11.21854 -11.21588 -11.20815  -1.40555  -1.39423
 Alpha  occ. eigenvalues --   -1.38684  -1.38147  -1.25390  -1.23608  -1.22662
 Alpha  occ. eigenvalues --   -1.22051  -1.10841  -1.09248  -1.07210  -1.04225
 Alpha  occ. eigenvalues --   -1.01219  -0.99305  -0.98773  -0.95512  -0.95197
 Alpha  occ. eigenvalues --   -0.94629  -0.92220  -0.87345  -0.85716  -0.82875
 Alpha  occ. eigenvalues --   -0.81325  -0.79547  -0.78718  -0.77149  -0.76928
 Alpha  occ. eigenvalues --   -0.71912  -0.71337  -0.71070  -0.68940  -0.67998
 Alpha  occ. eigenvalues --   -0.66847  -0.65749  -0.64570  -0.63894  -0.63618
 Alpha  occ. eigenvalues --   -0.62667  -0.62423  -0.61828  -0.61471  -0.61201
 Alpha  occ. eigenvalues --   -0.60895  -0.59919  -0.59391  -0.58754  -0.58546
 Alpha  occ. eigenvalues --   -0.58230  -0.57792  -0.56518  -0.56369  -0.56261
 Alpha  occ. eigenvalues --   -0.55469  -0.54884  -0.54795  -0.54568  -0.54137
 Alpha  occ. eigenvalues --   -0.53222  -0.52830  -0.52371  -0.52191  -0.51546
 Alpha  occ. eigenvalues --   -0.51000  -0.50373  -0.49819  -0.49465  -0.48622
 Alpha  occ. eigenvalues --   -0.48295  -0.47067  -0.46114  -0.44593  -0.42850
 Alpha  occ. eigenvalues --   -0.41883  -0.41563  -0.41118  -0.39251  -0.38892
 Alpha  occ. eigenvalues --   -0.38339  -0.38297  -0.34536
 Alpha virt. eigenvalues --    0.17001   0.18834   0.19595   0.20036   0.20284
 Alpha virt. eigenvalues --    0.21535   0.21928   0.23079   0.23143   0.23946
 Alpha virt. eigenvalues --    0.25394   0.25683   0.26580   0.26930   0.27519

 Mulliken atomic charges:
              1
     1  C   -0.279847
     2  N   -0.782800
     3  C    0.821766
     4  O   -0.628809
     5  C    0.101955
     6  C   -0.472713
     7  C   -0.332415
     8  C   -0.313028
     9  C   -0.372357
    10  C   -0.186435
    11  C   -0.174981
    12  C   -0.354874
    13  C   -0.310167
    14  C   -0.329270
    15  C    0.091025
    16  C   -0.509658
    17  N   -0.787608
    18  C    0.767306
    19  C   -0.595698
    20  O   -0.613721
    21  C    0.820555
    22  O   -0.639586
    23  N   -0.805880
    24  C   -0.275538
    25  N   -0.842973
    26  C    0.744611
    27  C   -0.588671
    28  O   -0.591965
    29  H    0.187201
    30  H    0.197073
    31  H    0.162319
    32  H    0.391600
    33  H    0.198757
    34  H    0.143939
    35  H    0.212265
    36  H    0.160006
    37  H    0.185088
    38  H    0.163997
    39  H    0.179356
    40  H    0.212785
    41  H    0.177902
    42  H    0.182705
    43  H    0.170273
    44  H    0.177546
    45  H    0.159842
    46  H    0.151110
    47  H    0.199277
    48  H    0.173053
    49  H    0.185553
    50  H    0.183499
    51  H    0.148653
    52  H    0.226759
    53  H    0.389634
    54  H    0.211330
    55  H    0.209434
    56  H    0.176187
    57  H    0.395486
    58  H    0.165234
    59  H    0.199299
    60  H    0.185066
    61  H    0.382583
    62  H    0.218495
    63  H    0.177221
    64  H    0.201250
 Sum of Mulliken atomic charges =   0.00000

 Dipole moment (field-independent basis, Debye):
    X=             -2.0839    Y=             -4.6822    Z=              5.9718  Tot=              7.8694
 Quadrupole moment (field-independent basis, Debye-Ang):
   XX=           -206.0705   YY=           -153.4035   ZZ=           -172.3144
   XY=             19.9589   XZ=            -15.6902   YZ=              9.3200

 Normal termination of Gaussian 09 at Thu Dec  5 17:15:06 2019.
