 Gaussian 09, Revision A.02,
 Gaussian 09:  EM64L-G09RevA.02 11-Jun-2009

 ---------------------------------
 #SP HF/6-31G* Geom=(ModRedundant)
 ---------------------------------

 ------------
 paramfit run
 ------------
 Symbolic Z-matrix:
 Charge =  0 Multiplicity = 1

                         Standard orientation:
 ---------------------------------------------------------------------
 Center     Atomic      Atomic             Coordinates (Angstroms)
 Number     Number       Type             X           Y           Z
 ---------------------------------------------------------------------
      1          6    20001001        0.415472    0.142936    1.166267
      2          7    20001014       -0.807654   -0.088702    0.426301
      3          6    20001002       -2.003467   -0.000739    1.054316
      4          8    20001024       -2.124550    0.478923    2.147480
      5          6    90000001       -3.237463   -0.424702    0.237679
      6          6    90000002       -4.405706   -0.714005    1.186022
      7          6    90000002       -3.601571    0.679029   -0.792276
      8          6    90000002       -3.969779    2.084124   -0.282601
      9          6    90000002       -2.814859    3.048838    0.052247
     10          6    20001004       -1.865835    3.294090   -1.097311
     11          6    20001004       -0.547559    3.395839   -1.046792
     12          6    90000002        0.335135    3.292928    0.173870
     13          6    90000002        1.061371    1.943423    0.318723
     14          6    90000002        2.002314    1.647927   -0.856956
     15          6    90000002        2.928406    0.408351   -0.754721
     16          6    90000002        3.713175    0.304565   -2.072604
     17          7    20001014        3.857428    0.613074    0.348247
     18          6    20001002        4.698422   -0.377693    0.765584
     19          6    20001001        5.314279   -0.159109    2.128576
     20          8    20001024        4.935969   -1.351121    0.105924
     21          6    20001002        2.059991   -0.828991   -0.432903
     22          8    20001024        1.744112   -1.069206    0.701312
     23          7    20001014        1.596438   -1.551953   -1.475220
     24          6    20001001        0.819627   -2.752235   -1.242645
     25          7    20001014       -2.930411   -1.608545   -0.578204
     26          6    20001002       -2.533270   -2.804533   -0.057086
     27          6    20001001       -2.611659   -3.978969   -1.010330
     28          8    20001024       -2.138747   -2.920169    1.068578
     29          1    20001035        0.581901   -0.619122    1.918941
     30          1    20001035        0.369231    1.104614    1.655921
     31          1    20001035        1.245338    0.143668    0.470799
     32          1    20001029       -0.759578   -0.701177   -0.353987
     33          1    20001034       -4.626941    0.141298    1.806058
     34          1    20001034       -5.287448   -0.968846    0.605656
     35          1    20001034       -4.164092   -1.539208    1.839924
     36          1    20001034       -4.464151    0.299570   -1.335587
     37          1    20001034       -2.795669    0.754202   -1.515567
     38          1    20001034       -4.565611    2.547832   -1.063355
     39          1    20001034       -4.617568    2.006340    0.584401
     40          1    20001034       -2.254728    2.677076    0.900427
     41          1    20001034       -3.261361    3.982884    0.374781
     42          1    20001033       -2.332179    3.390991   -2.064392
     43          1    20001033       -0.030373    3.568514   -1.977632
     44          1    20001034       -0.244805    3.464085    1.072670
     45          1    20001034        1.075151    4.091289    0.134024
     46          1    20001034        1.609107    1.961904    1.256815
     47          1    20001034        0.329602    1.152391    0.416761
     48          1    20001034        2.650391    2.505408   -1.025052
     49          1    20001034        1.407403    1.527887   -1.754744
     50          1    20001034        4.364910    1.166359   -2.157075
     51          1    20001034        3.046770    0.316068   -2.928847
     52          1    20001034        4.324835   -0.584623   -2.103563
     53          1    20001029        3.532976    1.214312    1.070710
     54          1    20001034        6.208328   -0.758023    2.212470
     55          1    20001034        4.605467   -0.483601    2.884495
     56          1    20001034        5.551934    0.884056    2.306648
     57          1    20001029        2.061598   -1.474017   -2.348639
     58          1    20001035        0.445557   -3.111130   -2.192480
     59          1    20001035       -0.016498   -2.526310   -0.597292
     60          1    20001035        1.412804   -3.531544   -0.775128
     61          1    20001029       -3.367197   -1.638720   -1.472550
     62          1    20001034       -1.941465   -4.753222   -0.666317
     63          1    20001034       -2.357328   -3.700389   -2.026824
     64          1    20001034       -3.623329   -4.371811   -1.009038
 ---------------------------------------------------------------------

 SCF Done:  E(RHF) =  -1295.16809468     A.U. after   15 cycles

 The electronic state is 1-A.
 Alpha  occ. eigenvalues --  -20.53458 -20.53415 -20.52858 -20.50941 -15.60141
 Alpha  occ. eigenvalues --  -15.59321 -15.58543 -15.56235 -11.35721 -11.35322
 Alpha  occ. eigenvalues --  -11.35015 -11.32973 -11.29939 -11.28495 -11.26843
 Alpha  occ. eigenvalues --  -11.24361 -11.23559 -11.23254 -11.23007 -11.22851
 Alpha  occ. eigenvalues --  -11.22361 -11.21509 -11.21331 -11.21116 -11.20571
 Alpha  occ. eigenvalues --  -11.20433 -11.18307 -11.17913  -1.45514  -1.40338
 Alpha  occ. eigenvalues --   -1.39554  -1.37803  -1.25708  -1.25096  -1.24619
 Alpha  occ. eigenvalues --   -1.22398  -1.11139  -1.09665  -1.07439  -1.04862
 Alpha  occ. eigenvalues --   -1.02515  -0.99730  -0.99637  -0.96959  -0.96640
 Alpha  occ. eigenvalues --   -0.94642  -0.91741  -0.88036  -0.86740  -0.83275
 Alpha  occ. eigenvalues --   -0.82255  -0.80266  -0.78691  -0.78332  -0.76650
 Alpha  occ. eigenvalues --   -0.73884  -0.72932  -0.71582  -0.69513  -0.69017
 Alpha  occ. eigenvalues --   -0.68301  -0.67886  -0.65851  -0.65022  -0.64026
 Alpha  occ. eigenvalues --   -0.63447  -0.62915  -0.62768  -0.62102  -0.61461
 Alpha  occ. eigenvalues --   -0.61165  -0.60632  -0.59622  -0.59325  -0.58277
 Alpha  occ. eigenvalues --   -0.57972  -0.57403  -0.57300  -0.57025  -0.56594
 Alpha  occ. eigenvalues --   -0.56224  -0.55913  -0.55109  -0.54368  -0.54145
 Alpha  occ. eigenvalues --   -0.52941  -0.52666  -0.51909  -0.51592  -0.51238
 Alpha  occ. eigenvalues --   -0.50749  -0.49743  -0.48648  -0.48101  -0.47203
 Alpha  occ. eigenvalues --   -0.46617  -0.44803  -0.44244  -0.43804  -0.42549
 Alpha  occ. eigenvalues --   -0.41848  -0.41358  -0.40061  -0.38906  -0.38072
 Alpha  occ. eigenvalues --   -0.34280  -0.33771  -0.30804
 Alpha virt. eigenvalues --    0.16235   0.18218   0.18841   0.19693   0.20051
 Alpha virt. eigenvalues --    0.20846   0.21347   0.22458   0.23324   0.25044
 Alpha virt. eigenvalues --    0.25398   0.25789   0.26237   0.27232   0.27789

 Mulliken atomic charges:
              1
     1  C   -0.391332
     2  N   -0.839853
     3  C    0.844173
     4  O   -0.626084
     5  C    0.103120
     6  C   -0.472344
     7  C   -0.329825
     8  C   -0.324900
     9  C   -0.364188
    10  C   -0.169720
    11  C   -0.171661
    12  C   -0.335738
    13  C   -0.397810
    14  C   -0.331188
    15  C    0.067710
    16  C   -0.503558
    17  N   -0.779015
    18  C    0.765345
    19  C   -0.596130
    20  O   -0.610280
    21  C    0.768321
    22  O   -0.587459
    23  N   -0.800356
    24  C   -0.297386
    25  N   -0.844086
    26  C    0.748575
    27  C   -0.586947
    28  O   -0.591913
    29  H    0.208617
    30  H    0.207365
    31  H    0.184459
    32  H    0.406152
    33  H    0.198190
    34  H    0.141391
    35  H    0.212433
    36  H    0.157098
    37  H    0.184757
    38  H    0.158094
    39  H    0.182776
    40  H    0.213788
    41  H    0.173486
    42  H    0.160572
    43  H    0.163635
    44  H    0.178936
    45  H    0.146397
    46  H    0.149861
    47  H    0.344698
    48  H    0.180742
    49  H    0.181678
    50  H    0.192881
    51  H    0.149576
    52  H    0.227872
    53  H    0.396070
    54  H    0.213958
    55  H    0.211016
    56  H    0.180798
    57  H    0.405727
    58  H    0.167206
    59  H    0.197710
    60  H    0.202446
    61  H    0.380822
    62  H    0.217425
    63  H    0.173023
    64  H    0.202873
 Sum of Mulliken atomic charges =   0.00000

 Dipole moment (field-independent basis, Debye):
    X=             -0.8322    Y=              0.1780    Z=             -7.0737  Tot=              7.1247
 Quadrupole moment (field-independent basis, Debye-Ang):
   XX=           -165.4207   YY=           -173.7868   ZZ=           -171.2475
   XY=             16.5894   XZ=             17.3383   YZ=             14.0538

 Normal termination of Gaussian 09 at Thu Dec  5 17:40:34 2019.
