 Gaussian 09, Revision A.02,
 Gaussian 09:  EM64L-G09RevA.02 11-Jun-2009

 ---------------------------------
 #SP HF/6-31G* Geom=(ModRedundant)
 ---------------------------------

 ------------
 paramfit run
 ------------
 Symbolic Z-matrix:
 Charge =  0 Multiplicity = 1

                         Standard orientation:
 ---------------------------------------------------------------------
 Center     Atomic      Atomic             Coordinates (Angstroms)
 Number     Number       Type             X           Y           Z
 ---------------------------------------------------------------------
      1          6    20001001       -4.498514   -0.215887   -2.269729
      2          7    20001014       -3.450143    0.032568   -1.302034
      3          6    20001002       -3.703924   -0.110446    0.019802
      4          8    20001024       -4.693203   -0.649780    0.432346
      5          6    90000001       -2.587884    0.333913    0.982292
      6          6    90000002       -3.173372    0.551005    2.381548
      7          6    90000002       -1.447314   -0.719824    1.000768
      8          6    90000002       -1.764961   -2.156533    1.453097
      9          6    90000002       -2.372529   -3.116561    0.411057
     10          6    20001004       -1.533626   -3.282939   -0.834269
     11          6    20001004       -0.864395   -2.346276   -1.486609
     12          6    90000002       -0.774465   -0.877632   -1.147858
     13          6    90000002        0.543657   -0.463432   -0.469214
     14          6    90000002        1.771903   -0.726215   -1.350843
     15          6    90000002        3.144779   -0.194051   -0.864369
     16          6    90000002        4.204279   -0.639878   -1.885226
     17          7    20001014        3.090876    1.260973   -0.825224
     18          6    20001002        4.110842    1.998479   -0.297198
     19          6    20001001        3.761094    3.434135    0.021194
     20          8    20001024        5.204890    1.548320   -0.098311
     21          6    20001002        3.390369   -0.708224    0.572307
     22          8    20001024        2.919968   -0.126654    1.512748
     23          7    20001014        4.056250   -1.875082    0.710244
     24          6    20001001        4.364549   -2.387719    2.029471
     25          7    20001014       -1.949554    1.564921    0.493842
     26          6    20001002       -2.616946    2.738474    0.301400
     27          6    20001001       -1.736157    3.960400    0.142576
     28          8    20001024       -3.812543    2.801136    0.248843
     29          1    20001035       -5.301390    0.507896   -2.189238
     30          1    20001035       -4.909704   -1.202963   -2.117003
     31          1    20001035       -4.071126   -0.164486   -3.263234
     32          1    20001029       -2.745381    0.686509   -1.550946
     33          1    20001034       -3.663985   -0.339991    2.742599
     34          1    20001034       -2.376731    0.820329    3.068617
     35          1    20001034       -3.906204    1.344461    2.363879
     36          1    20001034       -0.697337   -0.327705    1.684140
     37          1    20001034       -0.983016   -0.741700    0.019835
     38          1    20001034       -0.825683   -2.588748    1.785609
     39          1    20001034       -2.412256   -2.136831    2.323726
     40          1    20001034       -3.361867   -2.780387    0.128994
     41          1    20001034       -2.510230   -4.074423    0.900314
     42          1    20001033       -1.481139   -4.287800   -1.221069
     43          1    20001033       -0.311930   -2.653390   -2.360808
     44          1    20001034       -1.594070   -0.590290   -0.500440
     45          1    20001034       -0.896874   -0.302870   -2.065060
     46          1    20001034        0.468096    0.590395   -0.216010
     47          1    20001034        0.642126   -0.989298    0.471316
     48          1    20001034        1.606252   -0.298792   -2.337455
     49          1    20001034        1.875938   -1.795924   -1.489588
     50          1    20001034        4.003899   -0.148529   -2.830216
     51          1    20001034        4.156935   -1.709902   -2.058976
     52          1    20001034        5.200792   -0.369488   -1.569647
     53          1    20001029        2.185164    1.648911   -0.691425
     54          1    20001034        4.668553    4.016646    0.068736
     55          1    20001034        3.276217    3.464838    0.992315
     56          1    20001034        3.086753    3.862392   -0.712458
     57          1    20001029        4.622635   -2.187968   -0.042498
     58          1    20001035        4.786606   -3.378629    1.925129
     59          1    20001035        3.460454   -2.449891    2.617156
     60          1    20001035        5.071086   -1.752156    2.553510
     61          1    20001029       -0.969851    1.634748    0.657715
     62          1    20001034       -2.293104    4.727284   -0.375761
     63          1    20001034       -0.823726    3.741031   -0.400469
     64          1    20001034       -1.465123    4.334160    1.124739
 ---------------------------------------------------------------------

 SCF Done:  E(RHF) =  -1295.30524347     A.U. after   15 cycles

 The electronic state is 1-A.
 Alpha  occ. eigenvalues --  -20.53720 -20.53227 -20.52880 -20.51775 -15.59616
 Alpha  occ. eigenvalues --  -15.58989 -15.58891 -15.57398 -11.36023 -11.35457
 Alpha  occ. eigenvalues --  -11.34917 -11.33776 -11.29876 -11.28397 -11.25903
 Alpha  occ. eigenvalues --  -11.24873 -11.24812 -11.24570 -11.24465 -11.23724
 Alpha  occ. eigenvalues --  -11.23100 -11.22911 -11.22842 -11.22053 -11.21739
 Alpha  occ. eigenvalues --  -11.21576 -11.20195 -11.16833  -1.40634  -1.40596
 Alpha  occ. eigenvalues --   -1.39314  -1.38695  -1.26056  -1.24884  -1.23716
 Alpha  occ. eigenvalues --   -1.22328  -1.18972  -1.09529  -1.07019  -1.06609
 Alpha  occ. eigenvalues --   -1.01949  -1.00656  -0.99414  -0.98973  -0.95746
 Alpha  occ. eigenvalues --   -0.95536  -0.90868  -0.87911  -0.87438  -0.84800
 Alpha  occ. eigenvalues --   -0.83005  -0.80998  -0.80659  -0.78074  -0.77374
 Alpha  occ. eigenvalues --   -0.73318  -0.72845  -0.71559  -0.70150  -0.68967
 Alpha  occ. eigenvalues --   -0.67940  -0.65836  -0.65513  -0.65029  -0.64352
 Alpha  occ. eigenvalues --   -0.64184  -0.62891  -0.62687  -0.62572  -0.61959
 Alpha  occ. eigenvalues --   -0.61500  -0.60296  -0.60125  -0.59709  -0.59061
 Alpha  occ. eigenvalues --   -0.58798  -0.58074  -0.57470  -0.57000  -0.56384
 Alpha  occ. eigenvalues --   -0.56255  -0.55900  -0.55798  -0.54889  -0.54489
 Alpha  occ. eigenvalues --   -0.53957  -0.53558  -0.52767  -0.52605  -0.51770
 Alpha  occ. eigenvalues --   -0.51074  -0.50830  -0.50642  -0.50352  -0.49058
 Alpha  occ. eigenvalues --   -0.47559  -0.46244  -0.45536  -0.42792  -0.42701
 Alpha  occ. eigenvalues --   -0.42261  -0.41409  -0.40052  -0.39506  -0.39461
 Alpha  occ. eigenvalues --   -0.38304  -0.35351  -0.32252
 Alpha virt. eigenvalues --    0.15709   0.18124   0.18426   0.18674   0.19882
 Alpha virt. eigenvalues --    0.20415   0.21189   0.21968   0.23052   0.23919
 Alpha virt. eigenvalues --    0.25297   0.25597   0.26264   0.26472   0.27063

 Mulliken atomic charges:
              1
     1  C   -0.273887
     2  N   -0.787142
     3  C    0.825118
     4  O   -0.628921
     5  C    0.058525
     6  C   -0.458942
     7  C   -0.476407
     8  C   -0.276294
     9  C   -0.379798
    10  C   -0.173592
    11  C   -0.162901
    12  C   -0.440450
    13  C   -0.374008
    14  C   -0.314357
    15  C    0.088112
    16  C   -0.510894
    17  N   -0.786946
    18  C    0.768822
    19  C   -0.597458
    20  O   -0.609751
    21  C    0.822588
    22  O   -0.644189
    23  N   -0.805882
    24  C   -0.276927
    25  N   -0.853863
    26  C    0.751663
    27  C   -0.588153
    28  O   -0.589369
    29  H    0.185800
    30  H    0.199174
    31  H    0.161910
    32  H    0.398020
    33  H    0.196415
    34  H    0.151195
    35  H    0.204144
    36  H    0.170001
    37  H    0.224123
    38  H    0.161521
    39  H    0.175783
    40  H    0.219593
    41  H    0.171987
    42  H    0.181948
    43  H    0.181453
    44  H    0.301621
    45  H    0.164446
    46  H    0.134095
    47  H    0.246010
    48  H    0.180106
    49  H    0.192525
    50  H    0.186343
    51  H    0.151846
    52  H    0.229510
    53  H    0.384465
    54  H    0.216802
    55  H    0.206474
    56  H    0.174946
    57  H    0.397586
    58  H    0.168356
    59  H    0.198621
    60  H    0.187207
    61  H    0.400067
    62  H    0.219822
    63  H    0.165922
    64  H    0.205465
 Sum of Mulliken atomic charges =   0.00000

 Dipole moment (field-independent basis, Debye):
    X=              4.3687    Y=             -0.5404    Z=             -3.5113  Tot=              5.6309
 Quadrupole moment (field-independent basis, Debye-Ang):
   XX=           -219.8721   YY=           -155.6875   ZZ=           -168.8682
   XY=             -7.9903   XZ=              3.2067   YZ=             -1.2313

 Normal termination of Gaussian 09 at Thu Dec  5 17:26:59 2019.
