 Gaussian 09, Revision A.02,
 Gaussian 09:  EM64L-G09RevA.02 11-Jun-2009

 ---------------------------------
 #SP HF/6-31G* Geom=(ModRedundant)
 ---------------------------------

 ------------
 paramfit run
 ------------
 Symbolic Z-matrix:
 Charge =  0 Multiplicity = 1

                         Standard orientation:
 ---------------------------------------------------------------------
 Center     Atomic      Atomic             Coordinates (Angstroms)
 Number     Number       Type             X           Y           Z
 ---------------------------------------------------------------------
      1          6    20001001       -2.264384    2.374096    0.069439
      2          7    20001014       -3.136897    1.244615    0.314874
      3          6    20001002       -3.620669    0.526735   -0.725666
      4          8    20001024       -3.189671    0.635022   -1.840233
      5          6    90000001       -4.669561   -0.547524   -0.386286
      6          6    90000002       -5.440059   -0.930939   -1.654027
      7          6    90000002       -3.981020   -1.782637    0.255593
      8          6    90000002       -2.922727   -2.552874   -0.554585
      9          6    90000002       -1.484546   -1.997710   -0.562632
     10          6    20001004       -0.877634   -1.842923    0.812132
     11          6    20001004        0.365568   -2.108466    1.179136
     12          6    90000002        1.486039   -2.633468    0.313875
     13          6    90000002        2.507100   -1.565404   -0.117679
     14          6    90000002        3.220661   -0.912464    1.073712
     15          6    90000002        4.398655    0.051595    0.777798
     16          6    90000002        4.891067    0.610288    2.122730
     17          7    20001014        5.470247   -0.705689    0.145545
     18          6    20001002        6.578487   -0.088486   -0.358363
     19          6    20001001        7.403649   -0.931711   -1.303288
     20          8    20001024        6.881365    1.037662   -0.076944
     21          6    20001002        3.913915    1.128867   -0.218815
     22          8    20001024        3.905458    0.902674   -1.398940
     23          7    20001014        3.413130    2.272575    0.296090
     24          6    20001001        2.988584    3.343584   -0.581920
     25          7    20001014       -5.591153   -0.055610    0.648180
     26          6    20001002       -6.379549    1.046794    0.497152
     27          6    20001001       -7.498263    1.180699    1.509411
     28          8    20001024       -6.196648    1.859229   -0.364612
     29          1    20001035       -2.779748    3.177696   -0.443958
     30          1    20001035       -1.425568    2.062585   -0.535599
     31          1    20001035       -1.894612    2.738144    1.019750
     32          1    20001029       -3.696037    1.270066    1.135239
     33          1    20001034       -4.771680   -1.273639   -2.429114
     34          1    20001034       -6.147977   -1.720864   -1.421419
     35          1    20001034       -5.978859   -0.077665   -2.039443
     36          1    20001034       -4.783599   -2.481798    0.479785
     37          1    20001034       -3.561456   -1.484776    1.211378
     38          1    20001034       -2.883173   -3.553906   -0.135074
     39          1    20001034       -3.253952   -2.669543   -1.581255
     40          1    20001034       -1.458226   -1.042438   -1.070695
     41          1    20001034       -0.884363   -2.672446   -1.162919
     42          1    20001033       -1.546929   -1.467796    1.569389
     43          1    20001033        0.623518   -1.930717    2.211427
     44          1    20001034        1.085385   -3.099564   -0.578143
     45          1    20001034        2.005253   -3.420199    0.859828
     46          1    20001034        3.222205   -2.041465   -0.782784
     47          1    20001034        2.006377   -0.810783   -0.709839
     48          1    20001034        3.612209   -1.687562    1.729035
     49          1    20001034        2.491646   -0.356639    1.651592
     50          1    20001034        5.302764   -0.204410    2.706984
     51          1    20001034        4.073583    1.038589    2.693397
     52          1    20001034        5.663965    1.351965    1.987515
     53          1    20001029        5.180352   -1.513640   -0.356337
     54          1    20001034        8.405277   -0.532219   -1.350270
     55          1    20001034        6.960038   -0.876921   -2.292901
     56          1    20001034        7.436246   -1.972329   -0.999262
     57          1    20001029        3.654648    2.517294    1.227269
     58          1    20001035        2.511794    4.110550    0.014199
     59          1    20001035        2.278466    2.964911   -1.302313
     60          1    20001035        3.824590    3.778195   -1.120399
     61          1    20001029       -5.903779   -0.736749    1.303819
     62          1    20001034       -7.799027    2.216897    1.562387
     63          1    20001034       -7.204657    0.834452    2.494022
     64          1    20001034       -8.347892    0.590489    1.181411
 ---------------------------------------------------------------------

 SCF Done:  E(RHF) =  -1295.61959657     A.U. after   14 cycles

 The electronic state is 1-A.
 Alpha  occ. eigenvalues --  -20.53664 -20.51941 -20.51767 -20.51472 -15.59642
 Alpha  occ. eigenvalues --  -15.57819 -15.57407 -15.57399 -11.35987 -11.34146
 Alpha  occ. eigenvalues --  -11.33793 -11.33566 -11.29067 -11.28455 -11.24915
 Alpha  occ. eigenvalues --  -11.24777 -11.24381 -11.24165 -11.23258 -11.22768
 Alpha  occ. eigenvalues --  -11.22402 -11.22327 -11.22212 -11.22157 -11.21965
 Alpha  occ. eigenvalues --  -11.21727 -11.21665 -11.20884  -1.40595  -1.39254
 Alpha  occ. eigenvalues --   -1.38628  -1.37977  -1.25452  -1.23434  -1.22529
 Alpha  occ. eigenvalues --   -1.21973  -1.10696  -1.09262  -1.07131  -1.04227
 Alpha  occ. eigenvalues --   -1.01230  -0.99334  -0.98655  -0.95428  -0.95060
 Alpha  occ. eigenvalues --   -0.94516  -0.92167  -0.87138  -0.85662  -0.82746
 Alpha  occ. eigenvalues --   -0.81342  -0.79397  -0.78790  -0.77087  -0.76779
 Alpha  occ. eigenvalues --   -0.72148  -0.71273  -0.71125  -0.68922  -0.67925
 Alpha  occ. eigenvalues --   -0.66429  -0.65754  -0.64390  -0.64115  -0.63686
 Alpha  occ. eigenvalues --   -0.62545  -0.62093  -0.61690  -0.61331  -0.60972
 Alpha  occ. eigenvalues --   -0.60866  -0.59828  -0.59214  -0.58857  -0.58463
 Alpha  occ. eigenvalues --   -0.57982  -0.57813  -0.57070  -0.56218  -0.56061
 Alpha  occ. eigenvalues --   -0.55600  -0.54861  -0.54641  -0.54443  -0.53870
 Alpha  occ. eigenvalues --   -0.52986  -0.52798  -0.52482  -0.52077  -0.51518
 Alpha  occ. eigenvalues --   -0.51068  -0.50460  -0.49686  -0.48690  -0.48408
 Alpha  occ. eigenvalues --   -0.48315  -0.47478  -0.46122  -0.44458  -0.42854
 Alpha  occ. eigenvalues --   -0.41965  -0.41383  -0.40955  -0.39273  -0.38733
 Alpha  occ. eigenvalues --   -0.38244  -0.38179  -0.34299
 Alpha virt. eigenvalues --    0.17980   0.18777   0.19752   0.19987   0.20192
 Alpha virt. eigenvalues --    0.21701   0.22065   0.23270   0.23729   0.23967
 Alpha virt. eigenvalues --    0.24686   0.25728   0.26179   0.27091   0.27306

 Mulliken atomic charges:
              1
     1  C   -0.278550
     2  N   -0.782199
     3  C    0.822724
     4  O   -0.628337
     5  C    0.103894
     6  C   -0.472857
     7  C   -0.337615
     8  C   -0.322931
     9  C   -0.368970
    10  C   -0.161693
    11  C   -0.184993
    12  C   -0.353019
    13  C   -0.310015
    14  C   -0.328722
    15  C    0.091097
    16  C   -0.509346
    17  N   -0.787658
    18  C    0.767317
    19  C   -0.595710
    20  O   -0.614198
    21  C    0.820494
    22  O   -0.638056
    23  N   -0.806631
    24  C   -0.276093
    25  N   -0.843282
    26  C    0.744554
    27  C   -0.588654
    28  O   -0.591243
    29  H    0.185660
    30  H    0.200276
    31  H    0.160620
    32  H    0.390026
    33  H    0.198937
    34  H    0.143906
    35  H    0.213053
    36  H    0.163241
    37  H    0.177880
    38  H    0.166656
    39  H    0.183630
    40  H    0.219833
    41  H    0.172904
    42  H    0.171242
    43  H    0.168924
    44  H    0.178019
    45  H    0.158951
    46  H    0.151218
    47  H    0.200464
    48  H    0.173171
    49  H    0.183586
    50  H    0.183574
    51  H    0.147375
    52  H    0.226418
    53  H    0.390128
    54  H    0.210882
    55  H    0.209870
    56  H    0.176326
    57  H    0.394751
    58  H    0.163114
    59  H    0.201185
    60  H    0.185613
    61  H    0.382169
    62  H    0.218771
    63  H    0.176917
    64  H    0.201404
 Sum of Mulliken atomic charges =   0.00000

 Dipole moment (field-independent basis, Debye):
    X=             -3.6735    Y=             -3.8398    Z=              6.9371  Tot=              8.7385
 Quadrupole moment (field-independent basis, Debye-Ang):
   XX=           -169.6150   YY=           -164.4086   ZZ=           -174.4425
   XY=             -0.2780   XZ=            -19.7744   YZ=             12.1368

 Normal termination of Gaussian 09 at Thu Dec  5 17:47:35 2019.
