 Gaussian 09, Revision A.02,
 Gaussian 09:  EM64L-G09RevA.02 11-Jun-2009

 ---------------------------------
 #SP HF/6-31G* Geom=(ModRedundant)
 ---------------------------------

 ------------
 paramfit run
 ------------
 Symbolic Z-matrix:
 Charge =  0 Multiplicity = 1

                         Standard orientation:
 ---------------------------------------------------------------------
 Center     Atomic      Atomic             Coordinates (Angstroms)
 Number     Number       Type             X           Y           Z
 ---------------------------------------------------------------------
      1          6    20001001        1.459716   -1.938057   -0.137836
      2          7    20001014        2.538529   -1.033076    0.200422
      3          6    20001002        3.185522   -0.358289   -0.778441
      4          8    20001024        2.770106   -0.295933   -1.902401
      5          6    90000001        4.423202    0.449760   -0.348802
      6          6    90000002        5.288039    0.755158   -1.576252
      7          6    90000002        3.986090    1.751505    0.376454
      8          6    90000002        3.129070    2.778946   -0.384806
      9          6    90000002        1.608350    2.534219   -0.449283
     10          6    20001004        0.947674    2.410619    0.903680
     11          6    20001004       -0.334691    2.563483    1.191655
     12          6    90000002       -1.455920    2.900695    0.238300
     13          6    90000002       -2.333329    1.699640   -0.158168
     14          6    90000002       -3.037246    1.057585    1.044820
     15          6    90000002       -4.088828   -0.048030    0.768345
     16          6    90000002       -4.591452   -0.561660    2.127390
     17          7    20001014       -5.198728    0.541175    0.031805
     18          6    20001002       -6.206495   -0.227463   -0.474810
     19          6    20001001       -7.063876    0.452028   -1.517880
     20          8    20001024       -6.403279   -1.357501   -0.123481
     21          6    20001002       -3.439539   -1.132910   -0.120577
     22          8    20001024       -3.391172   -0.990405   -1.312752
     23          7    20001014       -2.849145   -2.175989    0.501840
     24          6    20001001       -2.266708   -3.252941   -0.272204
     25          7    20001014        5.197746   -0.293807    0.655498
     26          6    20001002        5.747203   -1.521493    0.430653
     27          6    20001001        6.788526   -1.954729    1.441629
     28          8    20001024        5.423843   -2.215448   -0.491304
     29          1    20001035        1.812489   -2.792096   -0.704508
     30          1    20001035        0.718237   -1.418124   -0.726565
     31          1    20001035        0.999052   -2.284620    0.778699
     32          1    20001029        3.059449   -1.231471    1.022351
     33          1    20001034        4.724061    1.282472   -2.330441
     34          1    20001034        6.136574    1.363600   -1.277884
     35          1    20001034        5.650298   -0.161284   -2.018778
     36          1    20001034        4.908871    2.252447    0.660625
     37          1    20001034        3.490125    1.479412    1.302879
     38          1    20001034        3.284700    3.734240    0.107952
     39          1    20001034        3.503294    2.897456   -1.396382
     40          1    20001034        1.399901    1.643457   -1.027604
     41          1    20001034        1.174648    3.359101   -1.003634
     42          1    20001033        1.610914    2.165033    1.717260
     43          1    20001033       -0.627903    2.431330    2.221376
     44          1    20001034       -1.059130    3.344204   -0.666865
     45          1    20001034       -2.084283    3.662147    0.698675
     46          1    20001034       -3.057728    2.046745   -0.889701
     47          1    20001034       -1.724223    0.964763   -0.667848
     48          1    20001034       -3.543538    1.829147    1.620922
     49          1    20001034       -2.285870    0.626805    1.696137
     50          1    20001034       -5.118095    0.241980    2.628779
     51          1    20001034       -3.765342   -0.856815    2.765986
     52          1    20001034       -5.273050   -1.391157    2.012938
     53          1    20001029       -4.969219    1.338846   -0.515697
     54          1    20001034       -8.013576   -0.057053   -1.580868
     55          1    20001034       -6.564020    0.376937   -2.478936
     56          1    20001034       -7.222842    1.501549   -1.295131
     57          1    20001029       -3.113478   -2.379828    1.436660
     58          1    20001035       -1.744412   -3.919412    0.401549
     59          1    20001035       -1.562691   -2.850199   -0.985495
     60          1    20001035       -3.021628   -3.813147   -0.814441
     61          1    20001029        5.626410    0.259909    1.363448
     62          1    20001034        6.869203   -3.031762    1.420091
     63          1    20001034        6.547009   -1.626231    2.446272
     64          1    20001034        7.749136   -1.530587    1.167525
 ---------------------------------------------------------------------

 SCF Done:  E(RHF) =  -1295.61842677     A.U. after   14 cycles

 The electronic state is 1-A.
 Alpha  occ. eigenvalues --  -20.53635 -20.51943 -20.51680 -20.51524 -15.59616
 Alpha  occ. eigenvalues --  -15.57917 -15.57410 -15.57279 -11.35961 -11.34146
 Alpha  occ. eigenvalues --  -11.33711 -11.33617 -11.29039 -11.28477 -11.25037
 Alpha  occ. eigenvalues --  -11.24652 -11.24366 -11.24177 -11.23260 -11.22814
 Alpha  occ. eigenvalues --  -11.22386 -11.22283 -11.22197 -11.22139 -11.21865
 Alpha  occ. eigenvalues --  -11.21756 -11.21676 -11.20863  -1.40564  -1.39279
 Alpha  occ. eigenvalues --   -1.38544  -1.38006  -1.25417  -1.23443  -1.22620
 Alpha  occ. eigenvalues --   -1.21866  -1.10672  -1.09261  -1.07117  -1.04238
 Alpha  occ. eigenvalues --   -1.01222  -0.99326  -0.98659  -0.95361  -0.95066
 Alpha  occ. eigenvalues --   -0.94583  -0.92149  -0.87085  -0.85683  -0.82684
 Alpha  occ. eigenvalues --   -0.81339  -0.79429  -0.78765  -0.76990  -0.76834
 Alpha  occ. eigenvalues --   -0.72305  -0.71290  -0.71106  -0.68900  -0.67915
 Alpha  occ. eigenvalues --   -0.66297  -0.65564  -0.64321  -0.64116  -0.63746
 Alpha  occ. eigenvalues --   -0.62494  -0.62139  -0.61671  -0.61346  -0.61105
 Alpha  occ. eigenvalues --   -0.60709  -0.59801  -0.59143  -0.59069  -0.58510
 Alpha  occ. eigenvalues --   -0.57947  -0.57721  -0.57213  -0.56199  -0.55980
 Alpha  occ. eigenvalues --   -0.55536  -0.55032  -0.54670  -0.54312  -0.53845
 Alpha  occ. eigenvalues --   -0.53002  -0.52788  -0.52432  -0.52064  -0.51494
 Alpha  occ. eigenvalues --   -0.51061  -0.50539  -0.49702  -0.48740  -0.48512
 Alpha  occ. eigenvalues --   -0.47916  -0.47603  -0.46105  -0.44524  -0.42830
 Alpha  occ. eigenvalues --   -0.41908  -0.41410  -0.40961  -0.39216  -0.38779
 Alpha  occ. eigenvalues --   -0.38246  -0.38134  -0.34152
 Alpha virt. eigenvalues --    0.17738   0.18802   0.19721   0.20007   0.20281
 Alpha virt. eigenvalues --    0.21515   0.21710   0.22988   0.23174   0.24113
 Alpha virt. eigenvalues --    0.24405   0.25335   0.25595   0.26640   0.26976

 Mulliken atomic charges:
              1
     1  C   -0.279157
     2  N   -0.782041
     3  C    0.822807
     4  O   -0.628528
     5  C    0.104566
     6  C   -0.472828
     7  C   -0.337550
     8  C   -0.328779
     9  C   -0.363134
    10  C   -0.163420
    11  C   -0.184651
    12  C   -0.353173
    13  C   -0.311141
    14  C   -0.328553
    15  C    0.091136
    16  C   -0.509245
    17  N   -0.787635
    18  C    0.767285
    19  C   -0.595751
    20  O   -0.614369
    21  C    0.819948
    22  O   -0.636817
    23  N   -0.807671
    24  C   -0.278503
    25  N   -0.843205
    26  C    0.744592
    27  C   -0.588630
    28  O   -0.591090
    29  H    0.184297
    30  H    0.204479
    31  H    0.160026
    32  H    0.389520
    33  H    0.198753
    34  H    0.143644
    35  H    0.213229
    36  H    0.162515
    37  H    0.179222
    38  H    0.165893
    39  H    0.185238
    40  H    0.221679
    41  H    0.173904
    42  H    0.166676
    43  H    0.168595
    44  H    0.179013
    45  H    0.159262
    46  H    0.151910
    47  H    0.201231
    48  H    0.173454
    49  H    0.182862
    50  H    0.183933
    51  H    0.146770
    52  H    0.226417
    53  H    0.390410
    54  H    0.210861
    55  H    0.210219
    56  H    0.176441
    57  H    0.394783
    58  H    0.161830
    59  H    0.202785
    60  H    0.186972
    61  H    0.381890
    62  H    0.218713
    63  H    0.176768
    64  H    0.201340
 Sum of Mulliken atomic charges =   0.00000

 Dipole moment (field-independent basis, Debye):
    X=              3.6743    Y=              3.4219    Z=              7.0217  Tot=              8.6321
 Quadrupole moment (field-independent basis, Debye-Ang):
   XX=           -161.2512   YY=           -168.7317   ZZ=           -174.1802
   XY=             -6.4710   XZ=             19.9198   YZ=            -13.1295

 Normal termination of Gaussian 09 at Thu Dec  5 17:59:30 2019.
