 Gaussian 09, Revision A.02,
 Gaussian 09:  EM64L-G09RevA.02 11-Jun-2009

 ---------------------------------
 #SP HF/6-31G* Geom=(ModRedundant)
 ---------------------------------

 ------------
 paramfit run
 ------------
 Symbolic Z-matrix:
 Charge =  0 Multiplicity = 1

                         Standard orientation:
 ---------------------------------------------------------------------
 Center     Atomic      Atomic             Coordinates (Angstroms)
 Number     Number       Type             X           Y           Z
 ---------------------------------------------------------------------
      1          6    20001001        5.210101   -1.693576    1.917307
      2          7    20001014        4.337318   -0.788363    1.198916
      3          6    20001002        4.336058   -0.783868   -0.154630
      4          8    20001024        4.858875   -1.647344   -0.803333
      5          6    90000001        3.506241    0.320370   -0.833931
      6          6    90000002        3.963326    0.485146   -2.287121
      7          6    90000002        1.993346   -0.019583   -0.749181
      8          6    90000002        1.480661   -1.313901   -1.406092
      9          6    90000002        1.622168   -2.625444   -0.608303
     10          6    20001004        0.958087   -2.594504    0.748280
     11          6    20001004        0.292814   -1.591270    1.297543
     12          6    90000002        0.033503   -0.227364    0.704018
     13          6    90000002       -1.388391   -0.039489    0.145013
     14          6    90000002       -2.472949   -0.199347    1.218834
     15          6    90000002       -3.936116    0.138511    0.832005
     16          6    90000002       -4.820853   -0.162220    2.052765
     17          7    20001014       -4.015759    1.557449    0.512937
     18          6    20001002       -5.153114    2.110159   -0.000865
     19          6    20001001       -4.972332    3.473501   -0.628097
     20          8    20001024       -6.219241    1.561588    0.038938
     21          6    20001002       -4.307503   -0.664274   -0.435407
     22          8    20001024       -4.007456   -0.251923   -1.523464
     23          7    20001014       -4.879764   -1.874900   -0.259672
     24          6    20001001       -5.299073   -2.656882   -1.404611
     25          7    20001014        3.644351    1.588530   -0.103091
     26          6    20001002        4.834040    2.228090    0.084723
     27          6    20001001        4.724728    3.668866    0.538963
     28          8    20001024        5.891217    1.689612   -0.084270
     29          1    20001035        6.255658   -1.451917    1.764470
     30          1    20001035        5.039672   -2.706637    1.583564
     31          1    20001035        4.980618   -1.629599    2.973526
     32          1    20001029        4.097750    0.065306    1.646288
     33          1    20001034        3.886920   -0.445237   -2.828861
     34          1    20001034        3.346534    1.232550   -2.777217
     35          1    20001034        4.995495    0.801755   -2.323342
     36          1    20001034        1.479485    0.809128   -1.231265
     37          1    20001034        1.693579    0.002248    0.293865
     38          1    20001034        0.422598   -1.162402   -1.598884
     39          1    20001034        1.947412   -1.447523   -2.376485
     40          1    20001034        2.668327   -2.873674   -0.484621
     41          1    20001034        1.196671   -3.416819   -1.215354
     42          1    20001033        1.041539   -3.504195    1.320655
     43          1    20001033       -0.120571   -1.753428    2.280690
     44          1    20001034        0.740204   -0.022847   -0.091099
     45          1    20001034        0.214890    0.524113    1.471466
     46          1    20001034       -1.437176    0.945996   -0.309756
     47          1    20001034       -1.553240   -0.746249   -0.657574
     48          1    20001034       -2.227425    0.424465    2.075637
     49          1    20001034       -2.464771   -1.224814    1.569121
     50          1    20001034       -4.551661    0.518073    2.852339
     51          1    20001034       -4.658738   -1.171539    2.416599
     52          1    20001034       -5.868152   -0.022913    1.830286
     53          1    20001029       -3.170625    1.967451    0.186810
     54          1    20001034       -5.926644    3.976781   -0.660654
     55          1    20001034       -4.613149    3.341835   -1.644354
     56          1    20001034       -4.254536    4.080077   -0.086603
     57          1    20001029       -5.321103   -2.067620    0.608308
     58          1    20001035       -5.616440   -3.632095   -1.059418
     59          1    20001035       -4.470809   -2.777115   -2.087363
     60          1    20001035       -6.117068   -2.183375   -1.937931
     61          1    20001029        2.826771    2.155959   -0.069413
     62          1    20001034        5.648115    3.953740    1.021846
     63          1    20001034        3.894068    3.823224    1.218468
     64          1    20001034        4.577173    4.305295   -0.327632
 ---------------------------------------------------------------------

 SCF Done:  E(RHF) =  -1295.47807025     A.U. after   14 cycles

 The electronic state is 1-A.
 Alpha  occ. eigenvalues --  -20.53703 -20.52358 -20.51910 -20.51711 -15.59716
 Alpha  occ. eigenvalues --  -15.58190 -15.57828 -15.57278 -11.36039 -11.34572
 Alpha  occ. eigenvalues --  -11.33969 -11.33740 -11.28720 -11.28702 -11.25306
 Alpha  occ. eigenvalues --  -11.24746 -11.24450 -11.23739 -11.23436 -11.23167
 Alpha  occ. eigenvalues --  -11.22903 -11.22773 -11.22452 -11.22281 -11.22227
 Alpha  occ. eigenvalues --  -11.21987 -11.20755 -11.20175  -1.40624  -1.39676
 Alpha  occ. eigenvalues --   -1.38587  -1.38404  -1.25523  -1.23829  -1.22908
 Alpha  occ. eigenvalues --   -1.21886  -1.14279  -1.09059  -1.07166  -1.04268
 Alpha  occ. eigenvalues --   -1.02521  -0.99530  -0.99339  -0.98302  -0.95355
 Alpha  occ. eigenvalues --   -0.95033  -0.91612  -0.87798  -0.85626  -0.84054
 Alpha  occ. eigenvalues --   -0.82194  -0.80577  -0.79742  -0.77170  -0.77054
 Alpha  occ. eigenvalues --   -0.73572  -0.71871  -0.71092  -0.68737  -0.68245
 Alpha  occ. eigenvalues --   -0.67723  -0.65388  -0.64721  -0.64394  -0.63805
 Alpha  occ. eigenvalues --   -0.63487  -0.62527  -0.61886  -0.61584  -0.61431
 Alpha  occ. eigenvalues --   -0.61001  -0.60438  -0.59511  -0.59186  -0.58936
 Alpha  occ. eigenvalues --   -0.58288  -0.57873  -0.57477  -0.56890  -0.56316
 Alpha  occ. eigenvalues --   -0.55586  -0.55282  -0.55003  -0.54769  -0.54345
 Alpha  occ. eigenvalues --   -0.53709  -0.53198  -0.52700  -0.52349  -0.52008
 Alpha  occ. eigenvalues --   -0.51003  -0.50538  -0.50100  -0.49706  -0.48618
 Alpha  occ. eigenvalues --   -0.48177  -0.47602  -0.45281  -0.43000  -0.42503
 Alpha  occ. eigenvalues --   -0.41806  -0.41408  -0.39285  -0.39168  -0.38620
 Alpha  occ. eigenvalues --   -0.38543  -0.38208  -0.34686
 Alpha virt. eigenvalues --    0.17792   0.18659   0.18786   0.19357   0.20111
 Alpha virt. eigenvalues --    0.21316   0.21781   0.22969   0.23212   0.24009
 Alpha virt. eigenvalues --    0.24976   0.25211   0.26638   0.26691   0.26976

 Mulliken atomic charges:
              1
     1  C   -0.277651
     2  N   -0.777974
     3  C    0.825096
     4  O   -0.632528
     5  C    0.138213
     6  C   -0.471141
     7  C   -0.486393
     8  C   -0.361531
     9  C   -0.345017
    10  C   -0.159412
    11  C   -0.185070
    12  C   -0.409284
    13  C   -0.290956
    14  C   -0.323524
    15  C    0.090070
    16  C   -0.509681
    17  N   -0.787798
    18  C    0.767729
    19  C   -0.595609
    20  O   -0.613068
    21  C    0.821304
    22  O   -0.641947
    23  N   -0.805992
    24  C   -0.275222
    25  N   -0.845656
    26  C    0.746030
    27  C   -0.588636
    28  O   -0.590890
    29  H    0.185227
    30  H    0.195537
    31  H    0.162981
    32  H    0.389956
    33  H    0.196454
    34  H    0.141442
    35  H    0.211367
    36  H    0.189894
    37  H    0.276121
    38  H    0.193856
    39  H    0.200228
    40  H    0.216022
    41  H    0.177268
    42  H    0.177631
    43  H    0.172843
    44  H    0.202459
    45  H    0.150235
    46  H    0.136585
    47  H    0.194889
    48  H    0.170726
    49  H    0.184582
    50  H    0.183029
    51  H    0.148970
    52  H    0.226151
    53  H    0.387743
    54  H    0.212271
    55  H    0.208295
    56  H    0.174504
    57  H    0.396133
    58  H    0.165721
    59  H    0.197265
    60  H    0.185432
    61  H    0.378192
    62  H    0.219285
    63  H    0.175935
    64  H    0.201311
 Sum of Mulliken atomic charges =   0.00000

 Dipole moment (field-independent basis, Debye):
    X=             -1.5963    Y=              2.4886    Z=              3.9029  Tot=              4.8963
 Quadrupole moment (field-independent basis, Debye-Ang):
   XX=           -231.9578   YY=           -151.0908   ZZ=           -169.8596
   XY=             22.5539   XZ=              4.9799   YZ=             -3.5192

 Normal termination of Gaussian 09 at Thu Dec  5 17:40:50 2019.
