 Gaussian 09, Revision A.02,
 Gaussian 09:  EM64L-G09RevA.02 11-Jun-2009

 ---------------------------------
 #SP HF/6-31G* Geom=(ModRedundant)
 ---------------------------------

 ------------
 paramfit run
 ------------
 Symbolic Z-matrix:
 Charge =  0 Multiplicity = 1

                         Standard orientation:
 ---------------------------------------------------------------------
 Center     Atomic      Atomic             Coordinates (Angstroms)
 Number     Number       Type             X           Y           Z
 ---------------------------------------------------------------------
      1          6    20001001        5.123245   -1.395600    2.003124
      2          7    20001014        4.172005   -0.625949    1.228511
      3          6    20001002        4.206934   -0.673646   -0.123752
      4          8    20001024        4.842925   -1.494977   -0.724316
      5          6    90000001        3.274424    0.300023   -0.866572
      6          6    90000002        3.748771    0.460713   -2.314679
      7          6    90000002        1.808890   -0.209516   -0.801904
      8          6    90000002        1.466366   -1.578823   -1.416163
      9          6    90000002        1.735997   -2.833486   -0.561906
     10          6    20001004        1.036227   -2.827636    0.776961
     11          6    20001004        0.396035   -1.820050    1.347648
     12          6    90000002        0.207300   -0.425046    0.801666
     13          6    90000002       -1.190001   -0.158499    0.213393
     14          6    90000002       -2.309430   -0.315303    1.251279
     15          6    90000002       -3.746825    0.096074    0.839808
     16          6    90000002       -4.676299   -0.215098    2.024164
     17          7    20001014       -3.761554    1.528246    0.574855
     18          6    20001002       -4.861516    2.145810    0.053555
     19          6    20001001       -4.609756    3.523724   -0.514578
     20          8    20001024       -5.949141    1.639730    0.043764
     21          6    20001002       -4.114233   -0.641915   -0.467520
     22          8    20001024       -3.768050   -0.200704   -1.530262
     23          7    20001014       -4.738451   -1.834219   -0.354636
     24          6    20001001       -5.156308   -2.554185   -1.540067
     25          7    20001014        3.245996    1.602784   -0.185810
     26          6    20001002        4.348761    2.382692    0.002140
     27          6    20001001        4.062301    3.817465    0.393914
     28          8    20001024        5.465012    1.964308   -0.120647
     29          1    20001035        6.137855   -1.040413    1.863992
     30          1    20001035        5.079494   -2.433659    1.707756
     31          1    20001035        4.859379   -1.318119    3.050370
     32          1    20001029        3.823867    0.210748    1.634741
     33          1    20001034        3.794521   -0.492380   -2.819112
     34          1    20001034        3.063679    1.112185   -2.848973
     35          1    20001034        4.738310    0.893218   -2.340720
     36          1    20001034        1.216446    0.534895   -1.329239
     37          1    20001034        1.480432   -0.182520    0.232344
     38          1    20001034        0.403521   -1.558527   -1.638798
     39          1    20001034        1.971518   -1.694624   -2.369465
     40          1    20001034        2.800013   -2.953826   -0.404578
     41          1    20001034        1.420893   -3.691591   -1.145172
     42          1    20001033        1.067807   -3.761200    1.315082
     43          1    20001033       -0.050572   -2.002851    2.312472
     44          1    20001034        0.943330   -0.219022    0.034022
     45          1    20001034        0.396795    0.288545    1.602587
     46          1    20001034       -1.187233    0.844837   -0.203361
     47          1    20001034       -1.360237   -0.826766   -0.620435
     48          1    20001034       -2.063390    0.264804    2.138113
     49          1    20001034       -2.351432   -1.352917    1.561028
     50          1    20001034       -4.402803    0.422634    2.856678
     51          1    20001034       -4.564283   -1.243338    2.352120
     52          1    20001034       -5.710707   -0.025091    1.779952
     53          1    20001029       -2.892175    1.915879    0.287392
     54          1    20001034       -5.542205    4.066104   -0.552316
     55          1    20001034       -4.227955    3.416621   -1.525460
     56          1    20001034       -3.883916    4.079571    0.069008
     57          1    20001029       -5.210987   -2.041995    0.493214
     58          1    20001035       -5.521353   -3.528247   -1.241965
     59          1    20001035       -4.314785   -2.681629   -2.205065
     60          1    20001035       -5.939864   -2.027882   -2.075605
     61          1    20001029        2.368005    2.072478   -0.193995
     62          1    20001034        4.933392    4.225808    0.885266
     63          1    20001034        3.201289    3.900481    1.047609
     64          1    20001034        3.866125    4.398724   -0.501326
 ---------------------------------------------------------------------

 SCF Done:  E(RHF) =  -1295.24860948     A.U. after   15 cycles

 The electronic state is 1-A.
 Alpha  occ. eigenvalues --  -20.53947 -20.52370 -20.51920 -20.51908 -15.60048
 Alpha  occ. eigenvalues --  -15.58180 -15.57827 -15.57559 -11.36282 -11.34588
 Alpha  occ. eigenvalues --  -11.33955 -11.33950 -11.29009 -11.28596 -11.25316
 Alpha  occ. eigenvalues --  -11.24885 -11.24629 -11.23478 -11.23270 -11.22961
 Alpha  occ. eigenvalues --  -11.22752 -11.22653 -11.22484 -11.22297 -11.22025
 Alpha  occ. eigenvalues --  -11.21931 -11.20799 -11.17318  -1.40862  -1.39680
 Alpha  occ. eigenvalues --   -1.38793  -1.38410  -1.26221  -1.23817  -1.22901
 Alpha  occ. eigenvalues --   -1.22169  -1.20694  -1.08953  -1.07206  -1.06172
 Alpha  occ. eigenvalues --   -1.03374  -1.00429  -0.99486  -0.98852  -0.95525
 Alpha  occ. eigenvalues --   -0.95034  -0.91260  -0.88338  -0.87568  -0.84746
 Alpha  occ. eigenvalues --   -0.82556  -0.81055  -0.79740  -0.77320  -0.77164
 Alpha  occ. eigenvalues --   -0.74487  -0.71870  -0.71436  -0.68752  -0.68336
 Alpha  occ. eigenvalues --   -0.67933  -0.65639  -0.64919  -0.64616  -0.64445
 Alpha  occ. eigenvalues --   -0.63666  -0.62761  -0.61920  -0.61636  -0.61583
 Alpha  occ. eigenvalues --   -0.61358  -0.60554  -0.59625  -0.59286  -0.59050
 Alpha  occ. eigenvalues --   -0.58743  -0.57918  -0.57436  -0.56827  -0.56328
 Alpha  occ. eigenvalues --   -0.55974  -0.55317  -0.54967  -0.54637  -0.54179
 Alpha  occ. eigenvalues --   -0.53751  -0.53122  -0.52909  -0.52415  -0.52075
 Alpha  occ. eigenvalues --   -0.51132  -0.50548  -0.50023  -0.49561  -0.48807
 Alpha  occ. eigenvalues --   -0.48382  -0.47489  -0.45363  -0.43191  -0.42407
 Alpha  occ. eigenvalues --   -0.41789  -0.41401  -0.39530  -0.39136  -0.38607
 Alpha  occ. eigenvalues --   -0.38497  -0.34825  -0.30243
 Alpha virt. eigenvalues --    0.17806   0.18282   0.18554   0.19364   0.19886
 Alpha virt. eigenvalues --    0.21326   0.21802   0.22913   0.23104   0.23541
 Alpha virt. eigenvalues --    0.24716   0.25270   0.26392   0.26747   0.26926

 Mulliken atomic charges:
              1
     1  C   -0.277358
     2  N   -0.782576
     3  C    0.829501
     4  O   -0.630767
     5  C    0.133862
     6  C   -0.468267
     7  C   -0.488240
     8  C   -0.355053
     9  C   -0.351655
    10  C   -0.164961
    11  C   -0.182823
    12  C   -0.476368
    13  C   -0.285903
    14  C   -0.314292
    15  C    0.088696
    16  C   -0.509705
    17  N   -0.787588
    18  C    0.768001
    19  C   -0.595637
    20  O   -0.612905
    21  C    0.821656
    22  O   -0.643433
    23  N   -0.805871
    24  C   -0.275051
    25  N   -0.850117
    26  C    0.746928
    27  C   -0.588945
    28  O   -0.588872
    29  H    0.185747
    30  H    0.197143
    31  H    0.164074
    32  H    0.389009
    33  H    0.195799
    34  H    0.141196
    35  H    0.209856
    36  H    0.197823
    37  H    0.321629
    38  H    0.188589
    39  H    0.203930
    40  H    0.217211
    41  H    0.175022
    42  H    0.176423
    43  H    0.170353
    44  H    0.231484
    45  H    0.146638
    46  H    0.127361
    47  H    0.194579
    48  H    0.170967
    49  H    0.184278
    50  H    0.182949
    51  H    0.149095
    52  H    0.225570
    53  H    0.386782
    54  H    0.212561
    55  H    0.207554
    56  H    0.173876
    57  H    0.396289
    58  H    0.165808
    59  H    0.196689
    60  H    0.185298
    61  H    0.377971
    62  H    0.220209
    63  H    0.175719
    64  H    0.202263
 Sum of Mulliken atomic charges =   0.00000

 Dipole moment (field-independent basis, Debye):
    X=             -1.7834    Y=              1.9858    Z=              3.4796  Tot=              4.3854
 Quadrupole moment (field-independent basis, Debye-Ang):
   XX=           -230.1550   YY=           -152.0422   ZZ=           -169.9075
   XY=             19.9090   XZ=              4.5286   YZ=             -1.8558

 Normal termination of Gaussian 09 at Thu Dec  5 17:34:20 2019.
