 Gaussian 09, Revision A.02,
 Gaussian 09:  EM64L-G09RevA.02 11-Jun-2009

 ---------------------------------
 #SP HF/6-31G* Geom=(ModRedundant)
 ---------------------------------

 ------------
 paramfit run
 ------------
 Symbolic Z-matrix:
 Charge =  0 Multiplicity = 1

                         Standard orientation:
 ---------------------------------------------------------------------
 Center     Atomic      Atomic             Coordinates (Angstroms)
 Number     Number       Type             X           Y           Z
 ---------------------------------------------------------------------
      1          6    20001001        5.237953   -2.179771    1.735945
      2          7    20001014        4.563154   -1.051609    1.128374
      3          6    20001002        4.530454   -0.930493   -0.219354
      4          8    20001024        4.839779   -1.826137   -0.955482
      5          6    90000001        3.941314    0.378927   -0.774079
      6          6    90000002        4.388173    0.567395   -2.227570
      7          6    90000002        2.393186    0.361698   -0.653230
      8          6    90000002        1.598719   -0.732937   -1.388234
      9          6    90000002        1.474121   -2.108315   -0.703071
     10          6    20001004        0.864911   -2.054036    0.678303
     11          6    20001004        0.123185   -1.087750    1.194918
     12          6    90000002       -0.297328    0.201560    0.531138
     13          6    90000002       -1.752100    0.210115    0.028018
     14          6    90000002       -2.771059    0.014578    1.158681
     15          6    90000002       -4.275298    0.179307    0.819895
     16          6    90000002       -5.075415   -0.126577    2.096492
     17          7    20001014       -4.511903    1.559188    0.418054
     18          6    20001002       -5.719261    1.961199   -0.075638
     19          6    20001001       -5.703611    3.291402   -0.793357
     20          8    20001024       -6.721437    1.313354    0.047171
     21          6    20001002       -4.613047   -0.738203   -0.377112
     22          8    20001024       -4.400203   -0.370770   -1.501219
     23          7    20001014       -5.051382   -1.985407   -0.100841
     24          6    20001001       -5.434010   -2.878941   -1.174804
     25          7    20001014        4.366219    1.521210    0.048159
     26          6    20001002        5.669712    1.875207    0.235949
     27          6    20001001        5.883519    3.261818    0.806664
     28          8    20001024        6.582096    1.141276   -0.019082
     29          1    20001035        6.307046   -2.153212    1.559067
     30          1    20001035        4.845835   -3.101044    1.330703
     31          1    20001035        5.052962   -2.159692    2.802589
     32          1    20001029        4.523444   -0.208283    1.651356
     33          1    20001034        4.100637   -0.275448   -2.837384
     34          1    20001034        3.934862    1.467981   -2.630920
     35          1    20001034        5.463096    0.659718   -2.281822
     36          1    20001034        2.058036    1.318904   -1.046488
     37          1    20001034        2.130198    0.356795    0.399906
     38          1    20001034        0.593631   -0.344387   -1.524050
     39          1    20001034        2.002453   -0.878537   -2.384815
     40          1    20001034        2.445140   -2.582555   -0.643228
     41          1    20001034        0.874064   -2.736156   -1.352365
     42          1    20001033        1.063448   -2.911214    1.301153
     43          1    20001033       -0.232014   -1.224939    2.204260
     44          1    20001034        0.352594    0.422318   -0.306915
     45          1    20001034       -0.163115    1.016298    1.241619
     46          1    20001034       -1.919225    1.153744   -0.483849
     47          1    20001034       -1.875834   -0.560900   -0.721019
     48          1    20001034       -2.556515    0.714820    1.963149
     49          1    20001034       -2.644380   -0.979669    1.570718
     50          1    20001034       -4.845386    0.628316    2.839327
     51          1    20001034       -4.796831   -1.088619    2.513919
     52          1    20001034       -6.139488   -0.106874    1.914557
     53          1    20001029       -3.726662    2.028635    0.028532
     54          1    20001034       -6.704816    3.694239   -0.812658
     55          1    20001034       -5.373636    3.129299   -1.815102
     56          1    20001034       -5.030435    4.000606   -0.324051
     57          1    20001029       -5.435836   -2.163310    0.796852
     58          1    20001035       -5.636247   -3.855937   -0.755877
     59          1    20001035       -4.625658   -2.961144   -1.886447
     60          1    20001035       -6.316627   -2.525162   -1.697855
     61          1    20001029        3.690742    2.244133    0.160680
     62          1    20001034        6.857853    3.301660    1.271486
     63          1    20001034        5.121972    3.529843    1.530376
     64          1    20001034        5.855470    3.987219   -0.000062
 ---------------------------------------------------------------------

 SCF Done:  E(RHF) =  -1295.58799777     A.U. after   14 cycles

 The electronic state is 1-A.
 Alpha  occ. eigenvalues --  -20.53607 -20.52332 -20.51905 -20.51708 -15.59572
 Alpha  occ. eigenvalues --  -15.58187 -15.57824 -15.57263 -11.35934 -11.34543
 Alpha  occ. eigenvalues --  -11.33980 -11.33727 -11.28973 -11.28831 -11.25273
 Alpha  occ. eigenvalues --  -11.24764 -11.24346 -11.23899 -11.23684 -11.22821
 Alpha  occ. eigenvalues --  -11.22722 -11.22582 -11.22546 -11.22210 -11.22110
 Alpha  occ. eigenvalues --  -11.22045 -11.21989 -11.20786  -1.40538  -1.39663
 Alpha  occ. eigenvalues --   -1.38575  -1.38389  -1.25374  -1.23844  -1.22902
 Alpha  occ. eigenvalues --   -1.21865  -1.11949  -1.09206  -1.07251  -1.04135
 Alpha  occ. eigenvalues --   -1.01447  -0.99352  -0.99005  -0.96285  -0.95365
 Alpha  occ. eigenvalues --   -0.94981  -0.92257  -0.87831  -0.85529  -0.82886
 Alpha  occ. eigenvalues --   -0.81403  -0.79791  -0.79138  -0.77167  -0.76994
 Alpha  occ. eigenvalues --   -0.73217  -0.71810  -0.70990  -0.68870  -0.68173
 Alpha  occ. eigenvalues --   -0.67544  -0.65399  -0.64664  -0.63875  -0.63638
 Alpha  occ. eigenvalues --   -0.62988  -0.62404  -0.61902  -0.61633  -0.61422
 Alpha  occ. eigenvalues --   -0.60757  -0.60410  -0.59537  -0.59037  -0.58871
 Alpha  occ. eigenvalues --   -0.57928  -0.57726  -0.56876  -0.56674  -0.56182
 Alpha  occ. eigenvalues --   -0.55760  -0.55345  -0.55025  -0.54924  -0.54400
 Alpha  occ. eigenvalues --   -0.53574  -0.53179  -0.52323  -0.52152  -0.51879
 Alpha  occ. eigenvalues --   -0.51025  -0.50571  -0.49877  -0.49746  -0.48774
 Alpha  occ. eigenvalues --   -0.48268  -0.47272  -0.45285  -0.44008  -0.42844
 Alpha  occ. eigenvalues --   -0.41915  -0.41790  -0.41342  -0.39201  -0.39131
 Alpha  occ. eigenvalues --   -0.38578  -0.38175  -0.34696
 Alpha virt. eigenvalues --    0.17541   0.18853   0.19366   0.19899   0.20255
 Alpha virt. eigenvalues --    0.21316   0.21758   0.22959   0.23333   0.24203
 Alpha virt. eigenvalues --    0.25043   0.25776   0.26547   0.26826   0.27311

 Mulliken atomic charges:
              1
     1  C   -0.278359
     2  N   -0.778080
     3  C    0.823077
     4  O   -0.631263
     5  C    0.112750
     6  C   -0.471855
     7  C   -0.361627
     8  C   -0.378110
     9  C   -0.343693
    10  C   -0.168267
    11  C   -0.186776
    12  C   -0.363853
    13  C   -0.304754
    14  C   -0.327862
    15  C    0.090449
    16  C   -0.509795
    17  N   -0.787664
    18  C    0.767453
    19  C   -0.595688
    20  O   -0.613206
    21  C    0.820705
    22  O   -0.640429
    23  N   -0.805918
    24  C   -0.275441
    25  N   -0.843518
    26  C    0.745292
    27  C   -0.588560
    28  O   -0.592050
    29  H    0.185748
    30  H    0.194972
    31  H    0.162835
    32  H    0.391079
    33  H    0.198649
    34  H    0.143137
    35  H    0.211917
    36  H    0.162397
    37  H    0.208685
    38  H    0.198676
    39  H    0.189181
    40  H    0.212537
    41  H    0.180444
    42  H    0.177632
    43  H    0.172490
    44  H    0.174431
    45  H    0.151290
    46  H    0.147461
    47  H    0.195371
    48  H    0.173306
    49  H    0.186159
    50  H    0.183580
    51  H    0.149204
    52  H    0.226957
    53  H    0.388896
    54  H    0.212009
    55  H    0.209007
    56  H    0.175510
    57  H    0.396009
    58  H    0.165772
    59  H    0.197970
    60  H    0.185549
    61  H    0.381590
    62  H    0.218700
    63  H    0.176866
    64  H    0.201027
 Sum of Mulliken atomic charges =   0.00000

 Dipole moment (field-independent basis, Debye):
    X=             -0.7868    Y=              3.5075    Z=              4.4634  Tot=              5.7309
 Quadrupole moment (field-independent basis, Debye-Ang):
   XX=           -230.3001   YY=           -150.4854   ZZ=           -170.1446
   XY=             26.0280   XZ=              6.7484   YZ=             -6.0630

 Normal termination of Gaussian 09 at Thu Dec  5 17:53:15 2019.
