 Gaussian 09, Revision A.02,
 Gaussian 09:  EM64L-G09RevA.02 11-Jun-2009

 ---------------------------------
 #SP HF/6-31G* Geom=(ModRedundant)
 ---------------------------------

 ------------
 paramfit run
 ------------
 Symbolic Z-matrix:
 Charge =  0 Multiplicity = 1

                         Standard orientation:
 ---------------------------------------------------------------------
 Center     Atomic      Atomic             Coordinates (Angstroms)
 Number     Number       Type             X           Y           Z
 ---------------------------------------------------------------------
      1          6    20001001        5.247355   -1.953540    1.829291
      2          7    20001014        4.467663   -0.929208    1.165914
      3          6    20001002        4.444455   -0.868114   -0.186062
      4          8    20001024        4.858273   -1.755708   -0.879372
      5          6    90000001        3.730006    0.347551   -0.803399
      6          6    90000002        4.178279    0.521912   -2.258215
      7          6    90000002        2.190510    0.171672   -0.700351
      8          6    90000002        1.527719   -1.030339   -1.397139
      9          6    90000002        1.537289   -2.381638   -0.655158
     10          6    20001004        0.903235   -2.334981    0.715271
     11          6    20001004        0.203108   -1.345802    1.246407
     12          6    90000002       -0.134706   -0.017105    0.613795
     13          6    90000002       -1.576218    0.083891    0.083318
     14          6    90000002       -2.627370   -0.089599    1.187807
     15          6    90000002       -4.113420    0.165155    0.825312
     16          6    90000002       -4.954954   -0.134425    2.076520
     17          7    20001014       -4.268273    1.566808    0.460730
     18          6    20001002       -5.442147    2.047015   -0.043728
     19          6    20001001       -5.341220    3.394759   -0.720637
     20          8    20001024       -6.479536    1.450431    0.040255
     21          6    20001002       -4.474304   -0.697815   -0.405041
     22          8    20001024       -4.219004   -0.309805   -1.513283
     23          7    20001014       -4.983669   -1.927275   -0.174917
     24          6    20001001       -5.390647   -2.767485   -1.282445
     25          7    20001014        4.018897    1.561419   -0.025904
     26          6    20001002        5.274676    2.058783    0.162029
     27          6    20001001        5.332083    3.482657    0.675261
     28          8    20001024        6.263246    1.415561   -0.050420
     29          1    20001035        6.310473   -1.821383    1.664171
     30          1    20001035        4.960997   -2.927102    1.459292
     31          1    20001035        5.043855   -1.909014    2.891816
     32          1    20001029        4.330919   -0.073896    1.651741
     33          1    20001034        3.991006   -0.371130   -2.834702
     34          1    20001034        3.639414    1.352024   -2.705179
     35          1    20001034        5.238271    0.725100   -2.303582
     36          1    20001034        1.763014    1.070954   -1.138256
     37          1    20001034        1.912305    0.182568    0.348822
     38          1    20001034        0.489694   -0.756245   -1.561442
     39          1    20001034        1.960776   -1.173535   -2.381685
     40          1    20001034        2.551696   -2.747615   -0.563483
     41          1    20001034        1.017302   -3.095763   -1.284024
     42          1    20001033        1.043151   -3.219282    1.315729
     43          1    20001033       -0.179748   -1.493047    2.244155
     44          1    20001034        0.543259    0.192807   -0.204597
     45          1    20001034        0.027642    0.768306    1.350930
     46          1    20001034       -1.682503    1.049578   -0.403019
     47          1    20001034       -1.724990   -0.657319   -0.690830
     48          1    20001034       -2.392833    0.574499    2.016964
     49          1    20001034       -2.562070   -1.100747    1.572079
     50          1    20001034       -4.700785    0.585185    2.846028
     51          1    20001034       -4.736403   -1.121714    2.470065
     52          1    20001034       -6.012483   -0.052537    1.874862
     53          1    20001029       -3.451367    2.004680    0.100669
     54          1    20001034       -6.319087    3.850983   -0.747023
     55          1    20001034       -4.999127    3.244975   -1.740275
     56          1    20001034       -4.641354    4.052995   -0.217351
     57          1    20001029       -5.395568   -2.110349    0.709465
     58          1    20001035       -5.652961   -3.744014   -0.897084
     59          1    20001035       -4.573166   -2.872121   -1.980586
     60          1    20001035       -6.242248   -2.351943   -1.811459
     61          1    20001029        3.269377    2.212867    0.047467
     62          1    20001034        6.289087    3.644546    1.149507
     63          1    20001034        4.534832    3.698342    1.377700
     64          1    20001034        5.241088    4.167007   -0.162108
 ---------------------------------------------------------------------

 SCF Done:  E(RHF) =  -1295.56267496     A.U. after   14 cycles

 The electronic state is 1-A.
 Alpha  occ. eigenvalues --  -20.53631 -20.52359 -20.51926 -20.51691 -15.59609
 Alpha  occ. eigenvalues --  -15.58205 -15.57846 -15.57243 -11.35961 -11.34572
 Alpha  occ. eigenvalues --  -11.33995 -11.33715 -11.28849 -11.28811 -11.25299
 Alpha  occ. eigenvalues --  -11.24738 -11.24377 -11.23931 -11.23628 -11.22867
 Alpha  occ. eigenvalues --  -11.22802 -11.22707 -11.22622 -11.22229 -11.22122
 Alpha  occ. eigenvalues --  -11.22044 -11.21680 -11.20777  -1.40558  -1.39686
 Alpha  occ. eigenvalues --   -1.38563  -1.38413  -1.25402  -1.23859  -1.22922
 Alpha  occ. eigenvalues --   -1.21849  -1.12582  -1.09165  -1.07206  -1.04123
 Alpha  occ. eigenvalues --   -1.01723  -0.99389  -0.99098  -0.97070  -0.95344
 Alpha  occ. eigenvalues --   -0.95027  -0.91975  -0.87825  -0.85442  -0.82964
 Alpha  occ. eigenvalues --   -0.81722  -0.79935  -0.79675  -0.77186  -0.76998
 Alpha  occ. eigenvalues --   -0.73275  -0.71859  -0.70984  -0.68778  -0.68224
 Alpha  occ. eigenvalues --   -0.67624  -0.65363  -0.64680  -0.64040  -0.63767
 Alpha  occ. eigenvalues --   -0.63075  -0.62437  -0.61895  -0.61618  -0.61447
 Alpha  occ. eigenvalues --   -0.60763  -0.60399  -0.59544  -0.59073  -0.58895
 Alpha  occ. eigenvalues --   -0.57895  -0.57841  -0.57130  -0.56829  -0.56261
 Alpha  occ. eigenvalues --   -0.55503  -0.55337  -0.55065  -0.54991  -0.54374
 Alpha  occ. eigenvalues --   -0.53620  -0.53223  -0.52505  -0.52205  -0.51978
 Alpha  occ. eigenvalues --   -0.50992  -0.50554  -0.49986  -0.49801  -0.48710
 Alpha  occ. eigenvalues --   -0.48158  -0.47194  -0.45095  -0.43890  -0.42856
 Alpha  occ. eigenvalues --   -0.41858  -0.41687  -0.41321  -0.39212  -0.39150
 Alpha  occ. eigenvalues --   -0.38597  -0.38178  -0.34758
 Alpha virt. eigenvalues --    0.17702   0.18814   0.19344   0.19457   0.20221
 Alpha virt. eigenvalues --    0.21300   0.21760   0.22948   0.23318   0.24167
 Alpha virt. eigenvalues --    0.24952   0.25601   0.26603   0.26814   0.27133

 Mulliken atomic charges:
              1
     1  C   -0.278055
     2  N   -0.777465
     3  C    0.823607
     4  O   -0.632027
     5  C    0.123170
     6  C   -0.471621
     7  C   -0.424601
     8  C   -0.373567
     9  C   -0.342304
    10  C   -0.161945
    11  C   -0.187181
    12  C   -0.380321
    13  C   -0.301540
    14  C   -0.327177
    15  C    0.090403
    16  C   -0.509754
    17  N   -0.787754
    18  C    0.767555
    19  C   -0.595659
    20  O   -0.613115
    21  C    0.820928
    22  O   -0.640904
    23  N   -0.805959
    24  C   -0.275390
    25  N   -0.844203
    26  C    0.745569
    27  C   -0.588541
    28  O   -0.591828
    29  H    0.185409
    30  H    0.195126
    31  H    0.162862
    32  H    0.390729
    33  H    0.197814
    34  H    0.142591
    35  H    0.211763
    36  H    0.175119
    37  H    0.235661
    38  H    0.199362
    39  H    0.194013
    40  H    0.213792
    41  H    0.178895
    42  H    0.177469
    43  H    0.172952
    44  H    0.192918
    45  H    0.150112
    46  H    0.143989
    47  H    0.195148
    48  H    0.172408
    49  H    0.185748
    50  H    0.183399
    51  H    0.149166
    52  H    0.226750
    53  H    0.388491
    54  H    0.212148
    55  H    0.208783
    56  H    0.175110
    57  H    0.396072
    58  H    0.165782
    59  H    0.197737
    60  H    0.185543
    61  H    0.380365
    62  H    0.218884
    63  H    0.176496
    64  H    0.201068
 Sum of Mulliken atomic charges =   0.00000

 Dipole moment (field-independent basis, Debye):
    X=             -1.2479    Y=              3.0308    Z=              4.2201  Tot=              5.3434
 Quadrupole moment (field-independent basis, Debye-Ang):
   XX=           -231.5147   YY=           -150.6425   ZZ=           -169.9949
   XY=             24.6417   XZ=              5.7219   YZ=             -4.9055

 Normal termination of Gaussian 09 at Thu Dec  5 17:47:13 2019.
