 Gaussian 09, Revision A.02,
 Gaussian 09:  EM64L-G09RevA.02 11-Jun-2009

 ---------------------------------
 #SP HF/6-31G* Geom=(ModRedundant)
 ---------------------------------

 ------------
 paramfit run
 ------------
 Symbolic Z-matrix:
 Charge =  0 Multiplicity = 1

                         Standard orientation:
 ---------------------------------------------------------------------
 Center     Atomic      Atomic             Coordinates (Angstroms)
 Number     Number       Type             X           Y           Z
 ---------------------------------------------------------------------
      1          6    20001001        5.184065   -2.375375    1.633485
      2          7    20001014        4.623729   -1.157942    1.084736
      3          6    20001002        4.592573   -0.973582   -0.255842
      4          8    20001024        4.802223   -1.862113   -1.034499
      5          6    90000001        4.136490    0.412839   -0.744934
      6          6    90000002        4.588390    0.619863   -2.194337
      7          6    90000002        2.595823    0.548547   -0.605177
      8          6    90000002        1.687128   -0.424937   -1.377341
      9          6    90000002        1.427569   -1.809808   -0.751722
     10          6    20001004        0.838520   -1.755759    0.638378
     11          6    20001004        0.050780   -0.820785    1.144388
     12          6    90000002       -0.453889    0.425293    0.457108
     13          6    90000002       -1.914637    0.338022   -0.020559
     14          6    90000002       -2.902345    0.113019    1.132142
     15          6    90000002       -4.418823    0.182917    0.815828
     16          6    90000002       -5.179381   -0.136040    2.113236
     17          7    20001014       -4.740921    1.536484    0.384967
     18          6    20001002       -5.977201    1.856284   -0.097108
     19          6    20001001       -6.049711    3.166755   -0.846916
     20          8    20001024       -6.938305    1.155494    0.058820
     21          6    20001002       -4.722370   -0.782181   -0.352576
     22          8    20001024       -4.549127   -0.431538   -1.488782
     23          7    20001014       -5.083662   -2.045071   -0.038635
     24          6    20001001       -5.431411   -2.985715   -1.083843
     25          7    20001014        4.683200    1.467528    0.121190
     26          6    20001002        6.017654    1.677599    0.307670
     27          6    20001001        6.377416    3.007987    0.935967
     28          8    20001024        6.847713    0.866464    0.009002
     29          1    20001035        6.248743   -2.450316    1.444292
     30          1    20001035        4.696090   -3.232556    1.193210
     31          1    20001035        5.010880   -2.384517    2.702259
     32          1    20001029        4.675135   -0.339372    1.644724
     33          1    20001034        4.210815   -0.160863   -2.836861
     34          1    20001034        4.226668    1.579310   -2.551907
     35          1    20001034        5.666628    0.604158   -2.258218
     36          1    20001034        2.357533    1.551726   -0.951690
     37          1    20001034        2.342381    0.523161    0.450002
     38          1    20001034        0.726178    0.070046   -1.483097
     39          1    20001034        2.065576   -0.566046   -2.384436
     40          1    20001034        2.345208   -2.383042   -0.725187
     41          1    20001034        0.760893   -2.343151   -1.420244
     42          1    20001033        1.096070   -2.584267    1.278188
     43          1    20001033       -0.279664   -0.952656    2.162807
     44          1    20001034        0.168691    0.661722   -0.397269
     45          1    20001034       -0.355415    1.263962    1.145244
     46          1    20001034       -2.144025    1.257397   -0.552072
     47          1    20001034       -2.005789   -0.457379   -0.748472
     48          1    20001034       -2.715579    0.844369    1.915583
     49          1    20001034       -2.712019   -0.861695    1.565800
     50          1    20001034       -4.981296    0.649191    2.833482
     51          1    20001034       -4.839190   -1.069793    2.548848
     52          1    20001034       -6.245608   -0.181780    1.949510
     53          1    20001029       -3.990376    2.040121   -0.029453
     54          1    20001034       -7.072632    3.511082   -0.858435
     55          1    20001034       -5.727410    2.998164   -1.870061
     56          1    20001034       -5.411036    3.924850   -0.406723
     57          1    20001029       -5.442760   -2.222054    0.869680
     58          1    20001035       -5.570295   -3.961842   -0.637964
     59          1    20001035       -4.631206   -3.039424   -1.807317
     60          1    20001035       -6.341226   -2.696226   -1.599776
     61          1    20001029        4.086486    2.249917    0.273986
     62          1    20001034        7.354475    2.927052    1.389596
     63          1    20001034        5.653391    3.319617    1.680430
     64          1    20001034        6.417389    3.768025    0.162309
 ---------------------------------------------------------------------

 SCF Done:  E(RHF) =  -1295.59450128     A.U. after   14 cycles

 The electronic state is 1-A.
 Alpha  occ. eigenvalues --  -20.53584 -20.52291 -20.51864 -20.51715 -15.59539
 Alpha  occ. eigenvalues --  -15.58150 -15.57782 -15.57286 -11.35910 -11.34501
 Alpha  occ. eigenvalues --  -11.33941 -11.33728 -11.28979 -11.28804 -11.25235
 Alpha  occ. eigenvalues --  -11.24792 -11.24323 -11.23840 -11.23659 -11.22772
 Alpha  occ. eigenvalues --  -11.22719 -11.22489 -11.22395 -11.22280 -11.22176
 Alpha  occ. eigenvalues --  -11.22017 -11.21881 -11.20770  -1.40518  -1.39623
 Alpha  occ. eigenvalues --   -1.38579  -1.38349  -1.25347  -1.23805  -1.22865
 Alpha  occ. eigenvalues --   -1.21881  -1.11607  -1.09210  -1.07271  -1.04152
 Alpha  occ. eigenvalues --   -1.01324  -0.99322  -0.98940  -0.95873  -0.95381
 Alpha  occ. eigenvalues --   -0.94913  -0.92409  -0.87788  -0.85614  -0.82934
 Alpha  occ. eigenvalues --   -0.81296  -0.79744  -0.78800  -0.77128  -0.76997
 Alpha  occ. eigenvalues --   -0.73113  -0.71753  -0.71000  -0.68919  -0.68122
 Alpha  occ. eigenvalues --   -0.67463  -0.65433  -0.64642  -0.63874  -0.63403
 Alpha  occ. eigenvalues --   -0.63034  -0.62389  -0.61905  -0.61621  -0.61375
 Alpha  occ. eigenvalues --   -0.60783  -0.60410  -0.59516  -0.58998  -0.58854
 Alpha  occ. eigenvalues --   -0.57968  -0.57699  -0.56787  -0.56706  -0.56191
 Alpha  occ. eigenvalues --   -0.55659  -0.55304  -0.54995  -0.54838  -0.54423
 Alpha  occ. eigenvalues --   -0.53548  -0.53084  -0.52244  -0.52161  -0.51755
 Alpha  occ. eigenvalues --   -0.51028  -0.50583  -0.49899  -0.49580  -0.48824
 Alpha  occ. eigenvalues --   -0.48243  -0.47597  -0.45213  -0.43760  -0.42818
 Alpha  occ. eigenvalues --   -0.41794  -0.41717  -0.41297  -0.39185  -0.39092
 Alpha  occ. eigenvalues --   -0.38541  -0.38182  -0.34650
 Alpha virt. eigenvalues --    0.17298   0.18876   0.19404   0.20099   0.20266
 Alpha virt. eigenvalues --    0.21349   0.21774   0.22993   0.23252   0.24295
 Alpha virt. eigenvalues --    0.25138   0.25871   0.26500   0.26850   0.27467

 Mulliken atomic charges:
              1
     1  C   -0.278619
     2  N   -0.778956
     3  C    0.822659
     4  O   -0.630794
     5  C    0.106466
     6  C   -0.472103
     7  C   -0.334880
     8  C   -0.365582
     9  C   -0.348546
    10  C   -0.174761
    11  C   -0.183559
    12  C   -0.352894
    13  C   -0.305714
    14  C   -0.327840
    15  C    0.090510
    16  C   -0.509795
    17  N   -0.787603
    18  C    0.767394
    19  C   -0.595695
    20  O   -0.613319
    21  C    0.820572
    22  O   -0.640222
    23  N   -0.805896
    24  C   -0.275436
    25  N   -0.843096
    26  C    0.745010
    27  C   -0.588603
    28  O   -0.592068
    29  H    0.186099
    30  H    0.194882
    31  H    0.162726
    32  H    0.391271
    33  H    0.198872
    34  H    0.143265
    35  H    0.211916
    36  H    0.157279
    37  H    0.196050
    38  H    0.189582
    39  H    0.186274
    40  H    0.212251
    41  H    0.181618
    42  H    0.178492
    43  H    0.172122
    44  H    0.163849
    45  H    0.153341
    46  H    0.148706
    47  H    0.196028
    48  H    0.173408
    49  H    0.186048
    50  H    0.183610
    51  H    0.149122
    52  H    0.226952
    53  H    0.389107
    54  H    0.211863
    55  H    0.209115
    56  H    0.175742
    57  H    0.395932
    58  H    0.165709
    59  H    0.198105
    60  H    0.185496
    61  H    0.381976
    62  H    0.218558
    63  H    0.177008
    64  H    0.200998
 Sum of Mulliken atomic charges =   0.00000

 Dipole moment (field-independent basis, Debye):
    X=             -0.2973    Y=              3.9133    Z=              4.6871  Tot=              6.1131
 Quadrupole moment (field-independent basis, Debye-Ang):
   XX=           -228.4973   YY=           -150.5211   ZZ=           -170.3092
   XY=             26.7048   XZ=              7.9961   YZ=             -7.0208

 Normal termination of Gaussian 09 at Thu Dec  5 17:59:18 2019.
