 Gaussian 09, Revision A.02,
 Gaussian 09:  EM64L-G09RevA.02 11-Jun-2009

 ---------------------------------
 #SP HF/6-31G* Geom=(ModRedundant)
 ---------------------------------

 ------------
 paramfit run
 ------------
 Symbolic Z-matrix:
 Charge =  0 Multiplicity = 1

                         Standard orientation:
 ---------------------------------------------------------------------
 Center     Atomic      Atomic             Coordinates (Angstroms)
 Number     Number       Type             X           Y           Z
 ---------------------------------------------------------------------
      1          6    20001001       -4.950231    2.681354    1.384948
      2          7    20001014       -4.640204    1.328399    0.971863
      3          6    20001002       -4.640858    1.007186   -0.343025
      4          8    20001024       -4.667068    1.836394   -1.209900
      5          6    90000001       -4.466756   -0.484027   -0.682668
      6          6    90000002       -4.944932   -0.743232   -2.115149
      7          6    90000002       -2.984152   -0.905563   -0.493476
      8          6    90000002       -1.897408   -0.213007   -1.335491
      9          6    90000002       -1.370934    1.149592   -0.842757
     10          6    20001004       -0.809857    1.121208    0.559621
     11          6    20001004        0.076207    0.273382    1.056449
     12          6    90000002        0.745605   -0.877354    0.344082
     13          6    90000002        2.194360   -0.595357   -0.093126
     14          6    90000002        3.121614   -0.289997    1.090879
     15          6    90000002        4.641588   -0.162514    0.811458
     16          6    90000002        5.328760    0.203260    2.137149
     17          7    20001014        5.137592   -1.450952    0.347305
     18          6    20001002        6.414016   -1.600109   -0.112644
     19          6    20001001        6.663964   -2.865634   -0.900539
     20          8    20001024        7.277634   -0.792353    0.089433
     21          6    20001002        4.848776    0.871543   -0.318376
     22          8    20001024        4.744722    0.540959   -1.468948
     23          7    20001014        5.044490    2.157866    0.043631
     24          6    20001001        5.295894    3.168920   -0.962733
     25          7    20001014       -5.215180   -1.317554    0.269449
     26          6    20001002       -6.565527   -1.240902    0.443686
     27          6    20001001       -7.184426   -2.404101    1.190715
     28          8    20001024       -7.217088   -0.316600    0.047107
     29          1    20001035       -5.978151    2.944938    1.163915
     30          1    20001035       -4.300238    3.376805    0.874478
     31          1    20001035       -4.782946    2.764035    2.451500
     32          1    20001029       -4.855121    0.596742    1.608082
     33          1    20001034       -4.417497   -0.121019   -2.821971
     34          1    20001034       -4.779189   -1.786201   -2.368096
     35          1    20001034       -5.998388   -0.522102   -2.206023
     36          1    20001034       -2.948103   -1.965766   -0.734082
     37          1    20001034       -2.734929   -0.824213    0.559876
     38          1    20001034       -1.053257   -0.895571   -1.369162
     39          1    20001034       -2.236336   -0.102526   -2.360331
     40          1    20001034       -2.156803    1.891947   -0.894546
     41          1    20001034       -0.609082    1.471015   -1.544258
     42          1    20001033       -1.181495    1.889706    1.217960
     43          1    20001033        0.365781    0.410253    2.086582
     44          1    20001034        0.175570   -1.159338   -0.532852
     45          1    20001034        0.736622   -1.744582    1.003194
     46          1    20001034        2.546941   -1.461104   -0.646788
     47          1    20001034        2.202278    0.229404   -0.793509
     48          1    20001034        3.009729   -1.064841    1.846281
     49          1    20001034        2.803064    0.638746    1.549477
     50          1    20001034        5.213660   -0.624276    2.827450
     51          1    20001034        4.866543    1.072919    2.592595
     52          1    20001034        6.384461    0.385020    2.002250
     53          1    20001029        4.464106   -2.028568   -0.101567
     54          1    20001034        7.721584   -3.081235   -0.896531
     55          1    20001034        6.345466   -2.703328   -1.925889
     56          1    20001034        6.114443   -3.710843   -0.500499
     57          1    20001029        5.359298    2.346726    0.965878
     58          1    20001035        5.303520    4.139053   -0.483457
     59          1    20001035        4.510983    3.148482   -1.704435
     60          1    20001035        6.245414    3.010908   -1.463929
     61          1    20001029       -4.786047   -2.182607    0.512503
     62          1    20001034       -8.127847   -2.087049    1.610724
     63          1    20001034       -6.539541   -2.775411    1.979260
     64          1    20001034       -7.371200   -3.215515    0.494637
 ---------------------------------------------------------------------

 SCF Done:  E(RHF) =  -1295.60843641     A.U. after   14 cycles

 The electronic state is 1-A.
 Alpha  occ. eigenvalues --  -20.53559 -20.52211 -20.51778 -20.51731 -15.59498
 Alpha  occ. eigenvalues --  -15.58070 -15.57698 -15.57344 -11.35880 -11.34421
 Alpha  occ. eigenvalues --  -11.33859 -11.33736 -11.28888 -11.28733 -11.25154
 Alpha  occ. eigenvalues --  -11.24848 -11.24297 -11.23759 -11.23576 -11.22685
 Alpha  occ. eigenvalues --  -11.22632 -11.22571 -11.22452 -11.22365 -11.22171
 Alpha  occ. eigenvalues --  -11.21951 -11.21719 -11.20745  -1.40494  -1.39540
 Alpha  occ. eigenvalues --   -1.38594  -1.38266  -1.25311  -1.23723  -1.22784
 Alpha  occ. eigenvalues --   -1.21925  -1.11171  -1.09207  -1.07258  -1.04193
 Alpha  occ. eigenvalues --   -1.01221  -0.99290  -0.98846  -0.95470  -0.95396
 Alpha  occ. eigenvalues --   -0.94778  -0.92380  -0.87583  -0.85704  -0.82942
 Alpha  occ. eigenvalues --   -0.81269  -0.79659  -0.78612  -0.77047  -0.77028
 Alpha  occ. eigenvalues --   -0.72424  -0.71616  -0.71004  -0.68924  -0.68054
 Alpha  occ. eigenvalues --   -0.67228  -0.65519  -0.64608  -0.63885  -0.63252
 Alpha  occ. eigenvalues --   -0.63015  -0.62387  -0.61902  -0.61573  -0.61278
 Alpha  occ. eigenvalues --   -0.60762  -0.60125  -0.59499  -0.58869  -0.58803
 Alpha  occ. eigenvalues --   -0.58038  -0.57753  -0.56752  -0.56464  -0.55974
 Alpha  occ. eigenvalues --   -0.55702  -0.55177  -0.54902  -0.54672  -0.54463
 Alpha  occ. eigenvalues --   -0.53464  -0.52890  -0.52235  -0.52206  -0.51622
 Alpha  occ. eigenvalues --   -0.50986  -0.50549  -0.49906  -0.49481  -0.48785
 Alpha  occ. eigenvalues --   -0.48189  -0.47651  -0.45175  -0.44324  -0.42798
 Alpha  occ. eigenvalues --   -0.41727  -0.41645  -0.41219  -0.39168  -0.39011
 Alpha  occ. eigenvalues --   -0.38460  -0.38211  -0.34611
 Alpha virt. eigenvalues --    0.16908   0.18896   0.19481   0.20173   0.20316
 Alpha virt. eigenvalues --    0.21421   0.21830   0.22991   0.23159   0.24365
 Alpha virt. eigenvalues --    0.25257   0.25963   0.26537   0.26780   0.27511

 Mulliken atomic charges:
              1
     1  C   -0.279168
     2  N   -0.780806
     3  C    0.821987
     4  O   -0.630326
     5  C    0.103158
     6  C   -0.472435
     7  C   -0.329811
     8  C   -0.328479
     9  C   -0.361555
    10  C   -0.184522
    11  C   -0.177009
    12  C   -0.353275
    13  C   -0.306182
    14  C   -0.328866
    15  C    0.090819
    16  C   -0.509756
    17  N   -0.787597
    18  C    0.767336
    19  C   -0.595696
    20  O   -0.613502
    21  C    0.820456
    22  O   -0.639924
    23  N   -0.805891
    24  C   -0.275444
    25  N   -0.842785
    26  C    0.744671
    27  C   -0.588655
    28  O   -0.592113
    29  H    0.186729
    30  H    0.195150
    31  H    0.162452
    32  H    0.391484
    33  H    0.198487
    34  H    0.143439
    35  H    0.211876
    36  H    0.157360
    37  H    0.189473
    38  H    0.164249
    39  H    0.182663
    40  H    0.212480
    41  H    0.181896
    42  H    0.181223
    43  H    0.171496
    44  H    0.172090
    45  H    0.157010
    46  H    0.149957
    47  H    0.197784
    48  H    0.173009
    49  H    0.185711
    50  H    0.183553
    51  H    0.148925
    52  H    0.226894
    53  H    0.389361
    54  H    0.211618
    55  H    0.209277
    56  H    0.175991
    57  H    0.395770
    58  H    0.165555
    59  H    0.198464
    60  H    0.185341
    61  H    0.382160
    62  H    0.218366
    63  H    0.177084
    64  H    0.200997
 Sum of Mulliken atomic charges =   0.00000

 Dipole moment (field-independent basis, Debye):
    X=             -0.6764    Y=             -4.4922    Z=              5.1691  Tot=              6.8816
 Quadrupole moment (field-independent basis, Debye-Ang):
   XX=           -222.1998   YY=           -151.1099   ZZ=           -170.8033
   XY=             25.9641   XZ=            -10.9226   YZ=              8.3463

 Normal termination of Gaussian 09 at Thu Dec  5 18:10:56 2019.
