 Gaussian 09, Revision A.02,
 Gaussian 09:  EM64L-G09RevA.02 11-Jun-2009

 ---------------------------------
 #SP HF/6-31G* Geom=(ModRedundant)
 ---------------------------------

 ------------
 paramfit run
 ------------
 Symbolic Z-matrix:
 Charge =  0 Multiplicity = 1

                         Standard orientation:
 ---------------------------------------------------------------------
 Center     Atomic      Atomic             Coordinates (Angstroms)
 Number     Number       Type             X           Y           Z
 ---------------------------------------------------------------------
      1          6    20001001       -0.873919   -1.043783   -2.546052
      2          7    20001014       -1.062287   -0.313202   -1.309922
      3          6    20001002       -2.100313    0.546511   -1.185401
      4          8    20001024       -3.011032    0.576021   -1.966084
      5          6    90000001       -2.129364    1.402696    0.093461
      6          6    90000002       -3.050990    2.608545   -0.117192
      7          6    90000002       -2.586995    0.542059    1.302377
      8          6    90000002       -3.981573   -0.108921    1.270540
      9          6    90000002       -4.131090   -1.442708    0.512059
     10          6    20001004       -3.208893   -2.534772    1.001168
     11          6    20001004       -2.066514   -2.927253    0.461089
     12          6    90000002       -1.401919   -2.380767   -0.779644
     13          6    90000002       -0.220615   -1.433967   -0.500969
     14          6    90000002        0.916797   -2.117011    0.270171
     15          6    90000002        2.240234   -1.332059    0.462557
     16          6    90000002        3.179327   -2.205122    1.310683
     17          7    20001014        2.839022   -1.104575   -0.845585
     18          6    20001002        3.939917   -0.312192   -0.997956
     19          6    20001001        4.213081    0.133774   -2.416159
     20          8    20001024        4.642553    0.009848   -0.080494
     21          6    20001002        1.910474    0.041584    1.089523
     22          8    20001024        1.560333    0.956782    0.394008
     23          7    20001014        1.933146    0.132166    2.436840
     24          6    20001001        1.683883    1.402324    3.087046
     25          7    20001014       -0.772339    1.846103    0.444608
     26          6    20001002        0.008042    2.612243   -0.370075
     27          6    20001001        1.204838    3.252424    0.302208
     28          8    20001024       -0.225454    2.760899   -1.536060
     29          1    20001035       -0.626055   -0.384779   -3.370204
     30          1    20001035       -1.778337   -1.579335   -2.794917
     31          1    20001035       -0.071482   -1.757308   -2.407017
     32          1    20001029       -0.252839   -0.113564   -0.770271
     33          1    20001034       -4.045616    2.296285   -0.396737
     34          1    20001034       -3.105518    3.186180    0.800742
     35          1    20001034       -2.671005    3.239021   -0.907786
     36          1    20001034       -2.564644    1.208677    2.161645
     37          1    20001034       -1.834895   -0.218349    1.487866
     38          1    20001034       -4.260192   -0.289236    2.304695
     39          1    20001034       -4.710343    0.594060    0.880558
     40          1    20001034       -3.966541   -1.288275   -0.546448
     41          1    20001034       -5.165161   -1.753470    0.611850
     42          1    20001033       -3.531201   -3.040140    1.897178
     43          1    20001033       -1.536261   -3.726158    0.955400
     44          1    20001034       -2.123392   -1.852032   -1.390694
     45          1    20001034       -1.050803   -3.218120   -1.381436
     46          1    20001034        0.132668   -1.056217   -1.456411
     47          1    20001034       -0.575558   -0.571331    0.047397
     48          1    20001034        1.179264   -3.049670   -0.224595
     49          1    20001034        0.556234   -2.380356    1.257588
     50          1    20001034        3.431407   -3.094472    0.744915
     51          1    20001034        2.695028   -2.528874    2.226118
     52          1    20001034        4.096005   -1.687788    1.551115
     53          1    20001029        2.199500   -1.077993   -1.606517
     54          1    20001034        5.250986    0.416856   -2.503788
     55          1    20001034        3.596147    1.001186   -2.630900
     56          1    20001034        3.980253   -0.640152   -3.139493
     57          1    20001029        2.446536   -0.546649    2.947674
     58          1    20001035        1.626873    1.238380    4.155125
     59          1    20001035        0.745048    1.810447    2.742590
     60          1    20001035        2.468210    2.122610    2.877827
     61          1    20001029       -0.575106    1.894190    1.419459
     62          1    20001034        1.941866    3.491232   -0.450609
     63          1    20001034        1.646191    2.608534    1.054647
     64          1    20001034        0.892275    4.173133    0.784288
 ---------------------------------------------------------------------

 SCF Done:  E(RHF) =  -1294.97682742     A.U. after   16 cycles

 The electronic state is 1-A.
 Alpha  occ. eigenvalues --  -20.53795 -20.52944 -20.51814 -20.51284 -15.60383
 Alpha  occ. eigenvalues --  -15.58464 -15.57078 -15.54137 -11.36014 -11.35073
 Alpha  occ. eigenvalues --  -11.33291 -11.32948 -11.29169 -11.28262 -11.28084
 Alpha  occ. eigenvalues --  -11.25353 -11.23472 -11.23062 -11.22674 -11.22493
 Alpha  occ. eigenvalues --  -11.22320 -11.22277 -11.22254 -11.22190 -11.21894
 Alpha  occ. eigenvalues --  -11.20796 -11.20110 -11.19563  -1.42338  -1.40787
 Alpha  occ. eigenvalues --   -1.39561  -1.38004  -1.34608  -1.25414  -1.24378
 Alpha  occ. eigenvalues --   -1.23250  -1.10459  -1.09174  -1.07735  -1.03814
 Alpha  occ. eigenvalues --   -1.02068  -1.01861  -0.99718  -0.97995  -0.96674
 Alpha  occ. eigenvalues --   -0.95592  -0.94014  -0.91642  -0.87035  -0.86177
 Alpha  occ. eigenvalues --   -0.81697  -0.81220  -0.78781  -0.77678  -0.74415
 Alpha  occ. eigenvalues --   -0.73576  -0.73176  -0.71823  -0.71123  -0.69492
 Alpha  occ. eigenvalues --   -0.68768  -0.67358  -0.66587  -0.65204  -0.64285
 Alpha  occ. eigenvalues --   -0.64158  -0.63581  -0.63252  -0.62931  -0.61795
 Alpha  occ. eigenvalues --   -0.60551  -0.59603  -0.59412  -0.59209  -0.59025
 Alpha  occ. eigenvalues --   -0.58128  -0.57203  -0.56868  -0.56208  -0.56105
 Alpha  occ. eigenvalues --   -0.55865  -0.55500  -0.54503  -0.53767  -0.53542
 Alpha  occ. eigenvalues --   -0.53320  -0.52649  -0.52121  -0.51438  -0.51027
 Alpha  occ. eigenvalues --   -0.50850  -0.50069  -0.49171  -0.48268  -0.47919
 Alpha  occ. eigenvalues --   -0.46973  -0.45125  -0.44763  -0.43372  -0.42598
 Alpha  occ. eigenvalues --   -0.41933  -0.41220  -0.40358  -0.39604  -0.39303
 Alpha  occ. eigenvalues --   -0.36861  -0.34592  -0.28768
 Alpha virt. eigenvalues --    0.15971   0.17682   0.19216   0.19921   0.20175
 Alpha virt. eigenvalues --    0.20616   0.21215   0.22172   0.23074   0.24278
 Alpha virt. eigenvalues --    0.25548   0.25879   0.26294   0.27107   0.27457

 Mulliken atomic charges:
              1
     1  C   -0.381760
     2  N   -0.943431
     3  C    0.860611
     4  O   -0.627159
     5  C    0.084645
     6  C   -0.468624
     7  C   -0.355628
     8  C   -0.309869
     9  C   -0.379651
    10  C   -0.177320
    11  C   -0.150273
    12  C   -0.356737
    13  C   -0.384236
    14  C   -0.317490
    15  C    0.088401
    16  C   -0.506722
    17  N   -0.794013
    18  C    0.764457
    19  C   -0.598845
    20  O   -0.615485
    21  C    0.843481
    22  O   -0.666950
    23  N   -0.807039
    24  C   -0.295785
    25  N   -0.849166
    26  C    0.781664
    27  C   -0.568409
    28  O   -0.619923
    29  H    0.221959
    30  H    0.238072
    31  H    0.230802
    32  H    0.546056
    33  H    0.189563
    34  H    0.143987
    35  H    0.215218
    36  H    0.163562
    37  H    0.199751
    38  H    0.160162
    39  H    0.183232
    40  H    0.210508
    41  H    0.174185
    42  H    0.173247
    43  H    0.175056
    44  H    0.209986
    45  H    0.171438
    46  H    0.164679
    47  H    0.165415
    48  H    0.148245
    49  H    0.161576
    50  H    0.189350
    51  H    0.148983
    52  H    0.220608
    53  H    0.399238
    54  H    0.213529
    55  H    0.214529
    56  H    0.178919
    57  H    0.406811
    58  H    0.193515
    59  H    0.159886
    60  H    0.199643
    61  H    0.400336
    62  H    0.198067
    63  H    0.228330
    64  H    0.152813
 Sum of Mulliken atomic charges =   0.00000

 Dipole moment (field-independent basis, Debye):
    X=              1.0924    Y=             -3.2942    Z=              5.0060  Tot=              6.0913
 Quadrupole moment (field-independent basis, Debye-Ang):
   XX=           -190.7782   YY=           -176.0689   ZZ=           -160.4535
   XY=             -0.8179   XZ=            -11.5687   YZ=             14.6477

 Normal termination of Gaussian 09 at Thu Dec  5 18:17:56 2019.
