 Gaussian 09, Revision A.02,
 Gaussian 09:  EM64L-G09RevA.02 11-Jun-2009

 ---------------------------------
 #SP HF/6-31G* Geom=(ModRedundant)
 ---------------------------------

 ------------
 paramfit run
 ------------
 Symbolic Z-matrix:
 Charge =  0 Multiplicity = 1

                         Standard orientation:
 ---------------------------------------------------------------------
 Center     Atomic      Atomic             Coordinates (Angstroms)
 Number     Number       Type             X           Y           Z
 ---------------------------------------------------------------------
      1          6    20001001        3.173181    1.438972    2.459911
      2          7    20001014        3.566048    0.940234    1.158312
      3          6    20001002        4.345472   -0.162450    1.065053
      4          8    20001024        4.551294   -0.888057    1.998261
      5          6    90000001        4.852440   -0.524348   -0.342568
      6          6    90000002        6.053367   -1.469095   -0.228244
      7          6    90000002        3.706685   -1.160036   -1.176083
      8          6    90000002        3.056040   -2.463635   -0.679164
      9          6    90000002        1.952573   -2.349351    0.391320
     10          6    20001004        0.791876   -1.471214   -0.013573
     11          6    20001004       -0.376345   -1.854003   -0.502948
     12          6    90000002       -1.561971   -2.389231    0.263586
     13          6    90000002       -2.693601   -1.367316    0.474936
     14          6    90000002       -3.290775   -0.863197   -0.845731
     15          6    90000002       -4.554255    0.033310   -0.778366
     16          6    90000002       -4.907290    0.447681   -2.216112
     17          7    20001014       -5.647733   -0.747612   -0.216232
     18          6    20001002       -6.846765   -0.174618    0.095311
     19          6    20001001       -7.730253   -0.998629    1.003747
     20          8    20001024       -7.181220    0.901104   -0.317126
     21          6    20001002       -4.266653    1.217683    0.172040
     22          8    20001024       -4.392711    1.085959    1.359763
     23          7    20001014       -3.777112    2.350714   -0.376203
     24          6    20001001       -3.533796    3.515201    0.450218
     25          7    20001014        5.221279    0.691073   -1.082933
     26          6    20001002        6.183251    1.565492   -0.671019
     27          6    20001001        6.658617    2.542344   -1.726437
     28          8    20001024        6.615005    1.572095    0.446874
     29          1    20001035        4.022911    1.804404    3.025039
     30          1    20001035        2.698788    0.650119    3.025053
     31          1    20001035        2.464237    2.245558    2.321452
     32          1    20001029        3.640412    1.600609    0.420300
     33          1    20001034        5.800917   -2.356225    0.332293
     34          1    20001034        6.380842   -1.758902   -1.222231
     35          1    20001034        6.869778   -0.979799    0.282628
     36          1    20001034        4.136579   -1.369261   -2.153138
     37          1    20001034        2.939675   -0.408761   -1.335964
     38          1    20001034        2.616222   -2.939270   -1.550915
     39          1    20001034        3.819286   -3.144812   -0.317463
     40          1    20001034        2.371114   -1.977827    1.317688
     41          1    20001034        1.605541   -3.354871    0.601869
     42          1    20001033        0.948041   -0.413222    0.121995
     43          1    20001033       -0.512902   -1.776907   -1.570267
     44          1    20001034       -1.248554   -2.753700    1.234357
     45          1    20001034       -1.958465   -3.251869   -0.270495
     46          1    20001034       -3.455731   -1.840245    1.088020
     47          1    20001034       -2.319236   -0.534318    1.055276
     48          1    20001034       -3.547825   -1.713608   -1.473633
     49          1    20001034       -2.530804   -0.303112   -1.377802
     50          1    20001034       -5.190772   -0.437987   -2.772718
     51          1    20001034       -4.052710    0.887939   -2.719348
     52          1    20001034       -5.735643    1.139791   -2.239669
     53          1    20001029       -5.373646   -1.490602    0.385061
     54          1    20001034       -8.752707   -0.670226    0.895121
     55          1    20001034       -7.418953   -0.834425    2.031002
     56          1    20001034       -7.659607   -2.059511    0.789454
     57          1    20001029       -3.914283    2.503517   -1.347359
     58          1    20001035       -3.034382    4.265536   -0.148535
     59          1    20001035       -2.897815    3.246592    1.280882
     60          1    20001035       -4.456291    3.929062    0.844522
     61          1    20001029        5.027159    0.674540   -2.059453
     62          1    20001034        7.093837    3.401182   -1.236584
     63          1    20001034        5.855671    2.862648   -2.380832
     64          1    20001034        7.422215    2.066932   -2.333645
 ---------------------------------------------------------------------

 SCF Done:  E(RHF) =  -1295.48433129     A.U. after   16 cycles

 The electronic state is 1-A.
 Alpha  occ. eigenvalues --  -20.53664 -20.52186 -20.51865 -20.51779 -15.59632
 Alpha  occ. eigenvalues --  -15.58227 -15.57665 -15.57458 -11.35987 -11.34383
 Alpha  occ. eigenvalues --  -11.33939 -11.33801 -11.29041 -11.28723 -11.25402
 Alpha  occ. eigenvalues --  -11.24810 -11.24388 -11.24015 -11.23424 -11.23180
 Alpha  occ. eigenvalues --  -11.22800 -11.22680 -11.22606 -11.22583 -11.22401
 Alpha  occ. eigenvalues --  -11.21977 -11.21839 -11.20902  -1.40596  -1.39569
 Alpha  occ. eigenvalues --   -1.38640  -1.38301  -1.25442  -1.23701  -1.22934
 Alpha  occ. eigenvalues --   -1.22018  -1.10780  -1.09414  -1.07285  -1.04457
 Alpha  occ. eigenvalues --   -1.01389  -0.99419  -0.98871  -0.95463  -0.95388
 Alpha  occ. eigenvalues --   -0.94811  -0.92117  -0.87319  -0.85703  -0.82904
 Alpha  occ. eigenvalues --   -0.81349  -0.79701  -0.78852  -0.77126  -0.77124
 Alpha  occ. eigenvalues --   -0.72294  -0.71484  -0.71196  -0.69029  -0.68031
 Alpha  occ. eigenvalues --   -0.65963  -0.65566  -0.64810  -0.64269  -0.64001
 Alpha  occ. eigenvalues --   -0.62545  -0.62386  -0.62025  -0.61641  -0.61209
 Alpha  occ. eigenvalues --   -0.61099  -0.60004  -0.59264  -0.59019  -0.58670
 Alpha  occ. eigenvalues --   -0.58108  -0.57488  -0.57298  -0.56620  -0.56212
 Alpha  occ. eigenvalues --   -0.55492  -0.54952  -0.54881  -0.54513  -0.54255
 Alpha  occ. eigenvalues --   -0.53552  -0.53053  -0.52671  -0.52333  -0.51848
 Alpha  occ. eigenvalues --   -0.51042  -0.50888  -0.49933  -0.49056  -0.48612
 Alpha  occ. eigenvalues --   -0.48279  -0.47281  -0.46850  -0.46129  -0.42887
 Alpha  occ. eigenvalues --   -0.41926  -0.41701  -0.41206  -0.39269  -0.39082
 Alpha  occ. eigenvalues --   -0.38538  -0.38245  -0.25097
 Alpha virt. eigenvalues --    0.08653   0.18777   0.19466   0.19934   0.20160
 Alpha virt. eigenvalues --    0.21265   0.21488   0.23004   0.23502   0.24329
 Alpha virt. eigenvalues --    0.25537   0.25853   0.26371   0.26786   0.27520

 Mulliken atomic charges:
              1
     1  C   -0.280213
     2  N   -0.782952
     3  C    0.822701
     4  O   -0.627623
     5  C    0.102375
     6  C   -0.473255
     7  C   -0.334185
     8  C   -0.308917
     9  C   -0.349600
    10  C   -0.197017
    11  C   -0.203743
    12  C   -0.328586
    13  C   -0.307724
    14  C   -0.325547
    15  C    0.089129
    16  C   -0.509284
    17  N   -0.787014
    18  C    0.767145
    19  C   -0.595806
    20  O   -0.614302
    21  C    0.820361
    22  O   -0.639093
    23  N   -0.807011
    24  C   -0.274997
    25  N   -0.842917
    26  C    0.744574
    27  C   -0.588631
    28  O   -0.591407
    29  H    0.186821
    30  H    0.198583
    31  H    0.162946
    32  H    0.390864
    33  H    0.198175
    34  H    0.143765
    35  H    0.212977
    36  H    0.160162
    37  H    0.183604
    38  H    0.162270
    39  H    0.187307
    40  H    0.198596
    41  H    0.166321
    42  H    0.194875
    43  H    0.179345
    44  H    0.174883
    45  H    0.142586
    46  H    0.159626
    47  H    0.193997
    48  H    0.174645
    49  H    0.183385
    50  H    0.184710
    51  H    0.147026
    52  H    0.226413
    53  H    0.389904
    54  H    0.211346
    55  H    0.209487
    56  H    0.177254
    57  H    0.395481
    58  H    0.163268
    59  H    0.197289
    60  H    0.186623
    61  H    0.382117
    62  H    0.218832
    63  H    0.176814
    64  H    0.201240
 Sum of Mulliken atomic charges =   0.00000

 Dipole moment (field-independent basis, Debye):
    X=              0.7137    Y=              0.4346    Z=             -6.9506  Tot=              7.0006
 Quadrupole moment (field-independent basis, Debye-Ang):
   XX=           -209.6199   YY=           -159.3867   ZZ=           -171.7259
   XY=             21.8726   XZ=            -29.2429   YZ=             -4.5086

 Normal termination of Gaussian 09 at Thu Dec  5 18:17:11 2019.
