 Gaussian 09, Revision A.02,
 Gaussian 09:  EM64L-G09RevA.02 11-Jun-2009

 ---------------------------------
 #SP HF/6-31G* Geom=(ModRedundant)
 ---------------------------------

 ------------
 paramfit run
 ------------
 Symbolic Z-matrix:
 Charge =  0 Multiplicity = 1

                         Standard orientation:
 ---------------------------------------------------------------------
 Center     Atomic      Atomic             Coordinates (Angstroms)
 Number     Number       Type             X           Y           Z
 ---------------------------------------------------------------------
      1          6    20001001        3.719909   -0.560472    3.014888
      2          7    20001014        3.682209   -0.101099    1.642008
      3          6    20001002        4.447696   -0.708795    0.705609
      4          8    20001024        4.995781   -1.758024    0.901739
      5          6    90000001        4.473883   -0.053153   -0.686811
      6          6    90000002        5.696184   -0.550809   -1.465373
      7          6    90000002        3.153879   -0.358088   -1.445894
      8          6    90000002        2.783748   -1.822649   -1.742040
      9          6    90000002        2.097956   -2.627842   -0.620438
     10          6    20001004        0.820008   -2.004816   -0.109591
     11          6    20001004       -0.420461   -2.316451   -0.448526
     12          6    90000002       -1.578231   -2.610554    0.474960
     13          6    90000002       -2.578235   -1.450168    0.626819
     14          6    90000002       -3.240746   -1.061460   -0.701678
     15          6    90000002       -4.397082   -0.028930   -0.664084
     16          6    90000002       -4.837378    0.228762   -2.114320
     17          7    20001014       -5.506774   -0.602268    0.085180
     18          6    20001002       -6.609105    0.136660    0.404408
     19          6    20001001       -7.483288   -0.456784    1.485348
     20          8    20001024       -6.871099    1.179019   -0.128498
     21          6    20001002       -3.906984    1.231089    0.084837
     22          8    20001024       -3.936123    1.272116    1.285419
     23          7    20001014       -3.359308    2.220286   -0.653757
     24          6    20001001       -2.926435    3.449282   -0.020990
     25          7    20001014        4.502537    1.411562   -0.563433
     26          6    20001002        5.494684    2.098253    0.071997
     27          6    20001001        5.531776    3.585329   -0.213220
     28          8    20001024        6.274805    1.569765    0.812437
     29          1    20001035        4.687227   -0.386340    3.471969
     30          1    20001035        3.508645   -1.619129    3.051436
     31          1    20001035        2.960195   -0.032201    3.577131
     32          1    20001029        3.466780    0.855913    1.487072
     33          1    20001034        5.697784   -1.627246   -1.544199
     34          1    20001034        5.687953   -0.122196   -2.463101
     35          1    20001034        6.606837   -0.257502   -0.963767
     36          1    20001034        3.242985    0.149373   -2.403894
     37          1    20001034        2.335577    0.124785   -0.921018
     38          1    20001034        2.105592   -1.802735   -2.590172
     39          1    20001034        3.662062   -2.367945   -2.071567
     40          1    20001034        2.780412   -2.765555    0.208207
     41          1    20001034        1.900213   -3.619098   -1.013047
     42          1    20001033        0.951156   -1.219915    0.617626
     43          1    20001033       -0.645923   -2.366174   -1.502307
     44          1    20001034       -1.215023   -2.876312    1.460312
     45          1    20001034       -2.105992   -3.486608    0.100004
     46          1    20001034       -3.324268   -1.750283    1.357394
     47          1    20001034       -2.071111   -0.594743    1.053318
     48          1    20001034       -3.637731   -1.953367   -1.181717
     49          1    20001034       -2.480740   -0.664566   -1.364412
     50          1    20001034       -5.257530   -0.685524   -2.516981
     51          1    20001034       -3.992931    0.500906   -2.739003
     52          1    20001034       -5.591297    0.999546   -2.171224
     53          1    20001029       -5.254123   -1.285249    0.762245
     54          1    20001034       -8.473561   -0.033876    1.410722
     55          1    20001034       -7.064320   -0.194115    2.452094
     56          1    20001034       -7.538649   -1.537882    1.417929
     57          1    20001029       -3.569019    2.257892   -1.623250
     58          1    20001035       -2.411743    4.053762   -0.756256
     59          1    20001035       -2.246928    3.223562    0.787679
     60          1    20001035       -3.763049    4.011616    0.381021
     61          1    20001029        3.993830    1.911067   -1.258601
     62          1    20001034        6.055542    4.082039    0.590472
     63          1    20001034        4.538932    4.008015   -0.318808
     64          1    20001034        6.073981    3.757287   -1.137473
 ---------------------------------------------------------------------

 SCF Done:  E(RHF) =  -1295.56461362     A.U. after   14 cycles

 The electronic state is 1-A.
 Alpha  occ. eigenvalues --  -20.53651 -20.52290 -20.52039 -20.51863 -15.59624
 Alpha  occ. eigenvalues --  -15.58436 -15.57756 -15.57490 -11.35972 -11.34488
 Alpha  occ. eigenvalues --  -11.34114 -11.33870 -11.29053 -11.28865 -11.25686
 Alpha  occ. eigenvalues --  -11.24790 -11.24362 -11.24064 -11.23653 -11.22732
 Alpha  occ. eigenvalues --  -11.22707 -11.22542 -11.22316 -11.22177 -11.22098
 Alpha  occ. eigenvalues --  -11.21988 -11.21846 -11.20879  -1.40589  -1.39709
 Alpha  occ. eigenvalues --   -1.38720  -1.38441  -1.25444  -1.23807  -1.23140
 Alpha  occ. eigenvalues --   -1.22041  -1.10669  -1.09417  -1.07263  -1.04497
 Alpha  occ. eigenvalues --   -1.01284  -0.99422  -0.98916  -0.95626  -0.95454
 Alpha  occ. eigenvalues --   -0.95003  -0.91939  -0.87372  -0.85664  -0.82932
 Alpha  occ. eigenvalues --   -0.81245  -0.79846  -0.78733  -0.77284  -0.77151
 Alpha  occ. eigenvalues --   -0.73097  -0.71745  -0.71211  -0.69083  -0.68125
 Alpha  occ. eigenvalues --   -0.65983  -0.65424  -0.64793  -0.64283  -0.63828
 Alpha  occ. eigenvalues --   -0.62633  -0.62511  -0.61932  -0.61765  -0.61215
 Alpha  occ. eigenvalues --   -0.60887  -0.60069  -0.59252  -0.59157  -0.58896
 Alpha  occ. eigenvalues --   -0.58147  -0.57794  -0.56900  -0.56673  -0.56300
 Alpha  occ. eigenvalues --   -0.55626  -0.55149  -0.54665  -0.54530  -0.54234
 Alpha  occ. eigenvalues --   -0.53629  -0.52787  -0.52546  -0.52214  -0.52092
 Alpha  occ. eigenvalues --   -0.51046  -0.50911  -0.50065  -0.49459  -0.48520
 Alpha  occ. eigenvalues --   -0.48241  -0.47235  -0.46679  -0.45993  -0.42877
 Alpha  occ. eigenvalues --   -0.41947  -0.41857  -0.41319  -0.39293  -0.39245
 Alpha  occ. eigenvalues --   -0.38713  -0.38288  -0.29775
 Alpha virt. eigenvalues --    0.12980   0.18792   0.19340   0.19968   0.20127
 Alpha virt. eigenvalues --    0.21269   0.21373   0.22845   0.23720   0.24041
 Alpha virt. eigenvalues --    0.25408   0.25977   0.26190   0.26872   0.27609

 Mulliken atomic charges:
              1
     1  C   -0.279885
     2  N   -0.782545
     3  C    0.821443
     4  O   -0.629490
     5  C    0.102627
     6  C   -0.472290
     7  C   -0.333305
     8  C   -0.315443
     9  C   -0.352053
    10  C   -0.195268
    11  C   -0.192964
    12  C   -0.334326
    13  C   -0.313978
    14  C   -0.327848
    15  C    0.091764
    16  C   -0.509527
    17  N   -0.787353
    18  C    0.767020
    19  C   -0.595689
    20  O   -0.614568
    21  C    0.819906
    22  O   -0.638777
    23  N   -0.807299
    24  C   -0.274349
    25  N   -0.842775
    26  C    0.744811
    27  C   -0.588689
    28  O   -0.591543
    29  H    0.186469
    30  H    0.197623
    31  H    0.164816
    32  H    0.391677
    33  H    0.198723
    34  H    0.143800
    35  H    0.212495
    36  H    0.160435
    37  H    0.179284
    38  H    0.161204
    39  H    0.175486
    40  H    0.219803
    41  H    0.178510
    42  H    0.179432
    43  H    0.165469
    44  H    0.184576
    45  H    0.170958
    46  H    0.147469
    47  H    0.191755
    48  H    0.175312
    49  H    0.179385
    50  H    0.185352
    51  H    0.146813
    52  H    0.226546
    53  H    0.390766
    54  H    0.211461
    55  H    0.209216
    56  H    0.177424
    57  H    0.395837
    58  H    0.162359
    59  H    0.195331
    60  H    0.187361
    61  H    0.382095
    62  H    0.219098
    63  H    0.177035
    64  H    0.201020
 Sum of Mulliken atomic charges =   0.00000

 Dipole moment (field-independent basis, Debye):
    X=             -1.4811    Y=              2.1531    Z=             -3.9430  Tot=              4.7304
 Quadrupole moment (field-independent basis, Debye-Ang):
   XX=           -223.5580   YY=           -162.5395   ZZ=           -164.4361
   XY=             36.1680   XZ=            -14.5442   YZ=             -7.0489

 Normal termination of Gaussian 09 at Thu Dec  5 18:48:04 2019.
