 Gaussian 09, Revision A.02,
 Gaussian 09:  EM64L-G09RevA.02 11-Jun-2009

 ---------------------------------
 #SP HF/6-31G* Geom=(ModRedundant)
 ---------------------------------

 ------------
 paramfit run
 ------------
 Symbolic Z-matrix:
 Charge =  0 Multiplicity = 1

                         Standard orientation:
 ---------------------------------------------------------------------
 Center     Atomic      Atomic             Coordinates (Angstroms)
 Number     Number       Type             X           Y           Z
 ---------------------------------------------------------------------
      1          6    20001001       -5.257938    2.770460   -0.558712
      2          7    20001014       -4.726332    1.537976   -0.014997
      3          6    20001002       -4.489494    0.486034   -0.833186
      4          8    20001024       -4.485733    0.586487   -2.028862
      5          6    90000001       -4.085424   -0.833348   -0.151023
      6          6    90000002       -4.306873   -2.000285   -1.119041
      7          6    90000002       -2.608053   -0.759799    0.321806
      8          6    90000002       -1.499551   -0.537922   -0.723005
      9          6    90000002       -1.223737    0.909383   -1.176738
     10          6    20001004       -0.881312    1.852906   -0.047673
     11          6    20001004        0.322078    2.243507    0.339676
     12          6    90000002        1.127390    1.718150    1.503818
     13          6    90000002        2.256710    0.750070    1.107559
     14          6    90000002        3.298410    1.400139    0.187132
     15          6    90000002        4.580881    0.594084   -0.144819
     16          6    90000002        5.418225    1.434802   -1.122316
     17          7    20001014        5.332188    0.390047    1.086211
     18          6    20001002        6.435670   -0.412442    1.123567
     19          6    20001001        6.875060   -0.828133    2.508827
     20          8    20001024        7.018245   -0.765030    0.135928
     21          6    20001002        4.163893   -0.789718   -0.692486
     22          8    20001024        3.892108   -1.683661    0.063112
     23          7    20001014        4.021528   -0.912465   -2.029889
     24          6    20001001        3.682615   -2.194392   -2.612985
     25          7    20001014       -4.861425   -1.031814    1.081805
     26          6    20001002       -6.221744   -1.122366    1.113483
     27          6    20001001       -6.799508   -1.674872    2.399969
     28          8    20001024       -6.913975   -0.779496    0.197298
     29          1    20001035       -6.265178    2.642423   -0.938217
     30          1    20001035       -4.628233    3.114788   -1.365949
     31          1    20001035       -5.264745    3.518854    0.223729
     32          1    20001029       -4.943769    1.325390    0.930420
     33          1    20001034       -3.758849   -1.855661   -2.037565
     34          1    20001034       -3.978803   -2.924165   -0.652078
     35          1    20001034       -5.353608   -2.086027   -1.371868
     36          1    20001034       -2.406970   -1.713941    0.803882
     37          1    20001034       -2.532326   -0.004970    1.098195
     38          1    20001034       -0.583029   -0.922264   -0.284958
     39          1    20001034       -1.690999   -1.145085   -1.601683
     40          1    20001034       -2.077499    1.298323   -1.716349
     41          1    20001034       -0.409829    0.870891   -1.892215
     42          1    20001033       -1.726607    2.248002    0.492223
     43          1    20001033        0.795984    3.023673   -0.235229
     44          1    20001034        0.480537    1.213254    2.211014
     45          1    20001034        1.557283    2.564988    2.037347
     46          1    20001034        2.719960    0.390591    2.022189
     47          1    20001034        1.829275   -0.120727    0.628140
     48          1    20001034        3.628220    2.340840    0.622838
     49          1    20001034        2.822929    1.644588   -0.755478
     50          1    20001034        5.745946    2.334023   -0.613807
     51          1    20001034        4.829284    1.742914   -1.979984
     52          1    20001034        6.293738    0.900302   -1.459251
     53          1    20001029        4.789808    0.389630    1.919599
     54          1    20001034        7.913106   -1.122237    2.476831
     55          1    20001034        6.280428   -1.682299    2.818562
     56          1    20001034        6.739555   -0.034396    3.235463
     57          1    20001029        4.475515   -0.252522   -2.616134
     58          1    20001035        3.497630   -2.055078   -3.670006
     59          1    20001035        2.788753   -2.582270   -2.146951
     60          1    20001035        4.479520   -2.919439   -2.482581
     61          1    20001029       -4.371481   -1.465427    1.832459
     62          1    20001034       -7.827042   -1.353240    2.487711
     63          1    20001034       -6.240444   -1.354571    3.271981
     64          1    20001034       -6.778710   -2.759305    2.362891
 ---------------------------------------------------------------------

 SCF Done:  E(RHF) =  -1295.48527530     A.U. after   16 cycles

 The electronic state is 1-A.
 Alpha  occ. eigenvalues --  -20.53573 -20.52233 -20.51888 -20.51747 -15.59524
 Alpha  occ. eigenvalues --  -15.58156 -15.57719 -15.57434 -11.35891 -11.34439
 Alpha  occ. eigenvalues --  -11.33946 -11.33759 -11.28938 -11.28728 -11.25274
 Alpha  occ. eigenvalues --  -11.24858 -11.24279 -11.23861 -11.23457 -11.23096
 Alpha  occ. eigenvalues --  -11.23080 -11.23000 -11.22711 -11.22623 -11.22415
 Alpha  occ. eigenvalues --  -11.21899 -11.21897 -11.20797  -1.40508  -1.39604
 Alpha  occ. eigenvalues --   -1.38606  -1.38336  -1.25344  -1.23746  -1.22873
 Alpha  occ. eigenvalues --   -1.21989  -1.10858  -1.09386  -1.07269  -1.04473
 Alpha  occ. eigenvalues --   -1.01384  -0.99404  -0.98906  -0.95472  -0.95403
 Alpha  occ. eigenvalues --   -0.94806  -0.92051  -0.87340  -0.85546  -0.82879
 Alpha  occ. eigenvalues --   -0.81162  -0.79713  -0.78646  -0.77108  -0.77088
 Alpha  occ. eigenvalues --   -0.73262  -0.71641  -0.71118  -0.68970  -0.68037
 Alpha  occ. eigenvalues --   -0.65913  -0.65444  -0.64526  -0.64240  -0.63618
 Alpha  occ. eigenvalues --   -0.62488  -0.62448  -0.61906  -0.61641  -0.61185
 Alpha  occ. eigenvalues --   -0.60943  -0.60122  -0.59327  -0.58863  -0.58758
 Alpha  occ. eigenvalues --   -0.58179  -0.57579  -0.57057  -0.56661  -0.56251
 Alpha  occ. eigenvalues --   -0.55443  -0.54950  -0.54785  -0.54559  -0.54294
 Alpha  occ. eigenvalues --   -0.53793  -0.53105  -0.52627  -0.52264  -0.51860
 Alpha  occ. eigenvalues --   -0.50967  -0.50839  -0.49948  -0.49213  -0.48865
 Alpha  occ. eigenvalues --   -0.47972  -0.47253  -0.46857  -0.46224  -0.42799
 Alpha  occ. eigenvalues --   -0.41850  -0.41733  -0.41251  -0.39198  -0.39078
 Alpha  occ. eigenvalues --   -0.38527  -0.38227  -0.25136
 Alpha virt. eigenvalues --    0.08624   0.18869   0.19444   0.19978   0.20147
 Alpha virt. eigenvalues --    0.21183   0.21420   0.22885   0.23269   0.23751
 Alpha virt. eigenvalues --    0.25306   0.25737   0.25876   0.27080   0.27396

 Mulliken atomic charges:
              1
     1  C   -0.279769
     2  N   -0.782699
     3  C    0.822791
     4  O   -0.628499
     5  C    0.101957
     6  C   -0.473263
     7  C   -0.334919
     8  C   -0.313727
     9  C   -0.345781
    10  C   -0.195430
    11  C   -0.202749
    12  C   -0.323820
    13  C   -0.309766
    14  C   -0.326420
    15  C    0.088273
    16  C   -0.509884
    17  N   -0.786707
    18  C    0.767357
    19  C   -0.595777
    20  O   -0.613445
    21  C    0.820378
    22  O   -0.642076
    23  N   -0.805846
    24  C   -0.275187
    25  N   -0.842986
    26  C    0.744538
    27  C   -0.588654
    28  O   -0.592066
    29  H    0.186843
    30  H    0.197077
    31  H    0.162466
    32  H    0.391409
    33  H    0.197462
    34  H    0.145048
    35  H    0.212503
    36  H    0.162702
    37  H    0.183732
    38  H    0.171674
    39  H    0.187528
    40  H    0.197911
    41  H    0.163114
    42  H    0.188977
    43  H    0.179993
    44  H    0.163301
    45  H    0.144280
    46  H    0.158229
    47  H    0.195111
    48  H    0.175348
    49  H    0.187617
    50  H    0.184731
    51  H    0.150008
    52  H    0.226495
    53  H    0.388745
    54  H    0.211779
    55  H    0.208129
    56  H    0.176871
    57  H    0.396768
    58  H    0.166863
    59  H    0.195831
    60  H    0.185579
    61  H    0.382842
    62  H    0.218368
    63  H    0.177324
    64  H    0.201522
 Sum of Mulliken atomic charges =   0.00000

 Dipole moment (field-independent basis, Debye):
    X=             -0.0577    Y=              1.2839    Z=              5.1859  Tot=              5.3428
 Quadrupole moment (field-independent basis, Debye-Ang):
   XX=           -211.6094   YY=           -166.4458   ZZ=           -158.1083
   XY=             15.4972   XZ=            -26.8345   YZ=             -0.5816

 Normal termination of Gaussian 09 at Thu Dec  5 17:55:14 2019.
