 Gaussian 09, Revision A.02,
 Gaussian 09:  EM64L-G09RevA.02 11-Jun-2009

 ---------------------------------
 #SP HF/6-31G* Geom=(ModRedundant)
 ---------------------------------

 ------------
 paramfit run
 ------------
 Symbolic Z-matrix:
 Charge =  0 Multiplicity = 1

                         Standard orientation:
 ---------------------------------------------------------------------
 Center     Atomic      Atomic             Coordinates (Angstroms)
 Number     Number       Type             X           Y           Z
 ---------------------------------------------------------------------
      1          6    20001001       -4.109524    2.730097    1.263822
      2          7    20001014       -4.309263    1.336255    0.925361
      3          6    20001002       -4.346626    0.955558   -0.373015
      4          8    20001024       -4.000627    1.676924   -1.267254
      5          6    90000001       -4.728980   -0.510472   -0.644951
      6          6    90000002       -5.176087   -0.662210   -2.102659
      7          6    90000002       -3.532214   -1.444354   -0.317507
      8          6    90000002       -2.212145   -1.265242   -1.088851
      9          6    90000002       -1.241657   -0.171171   -0.601205
     10          6    20001004       -0.825040   -0.318406    0.843451
     11          6    20001004        0.290199   -0.856219    1.310096
     12          6    90000002        1.218634   -1.809195    0.596234
     13          6    90000002        2.502565   -1.155903    0.053742
     14          6    90000002        3.367763   -0.540496    1.161722
     15          6    90000002        4.772124   -0.006963    0.777334
     16          6    90000002        5.397945    0.606544    2.040428
     17          7    20001014        5.586867   -1.127373    0.327435
     18          6    20001002        6.826613   -0.936834   -0.210880
     19          6    20001001        7.381824   -2.121432   -0.968026
     20          8    20001024        7.435792    0.090189   -0.095703
     21          6    20001002        4.616967    0.982302   -0.399954
     22          8    20001024        4.548990    0.575296   -1.528517
     23          7    20001014        4.459701    2.289210   -0.097898
     24          6    20001001        4.360041    3.275371   -1.154192
     25          7    20001014       -5.797246   -0.939829    0.269319
     26          6    20001002       -7.026071   -0.351315    0.326856
     27          6    20001001       -8.086427   -1.147218    1.059183
     28          8    20001024       -7.251737    0.722565   -0.154805
     29          1    20001035       -4.944325    3.345324    0.948301
     30          1    20001035       -3.212976    3.096862    0.785901
     31          1    20001035       -3.992668    2.811856    2.337141
     32          1    20001029       -4.826000    0.780834    1.566279
     33          1    20001034       -4.407747   -0.329731   -2.783867
     34          1    20001034       -5.401919   -1.705042   -2.304498
     35          1    20001034       -6.058958   -0.068361   -2.289229
     36          1    20001034       -3.885104   -2.453687   -0.517342
     37          1    20001034       -3.339366   -1.395401    0.749589
     38          1    20001034       -1.689292   -2.215255   -1.027880
     39          1    20001034       -2.416964   -1.101324   -2.141730
     40          1    20001034       -1.682529    0.806823   -0.744464
     41          1    20001034       -0.371223   -0.204448   -1.247015
     42          1    20001033       -1.526699    0.068118    1.564829
     43          1    20001033        0.584185   -0.589241    2.313119
     44          1    20001034        0.705414   -2.285764   -0.230175
     45          1    20001034        1.491024   -2.607948    1.284995
     46          1    20001034        3.055486   -1.916152   -0.490936
     47          1    20001034        2.238958   -0.400338   -0.674587
     48          1    20001034        3.520641   -1.274453    1.950056
     49          1    20001034        2.824478    0.284633    1.607093
     50          1    20001034        5.559162   -0.182267    2.765940
     51          1    20001034        4.733648    1.334596    2.494333
     52          1    20001034        6.350144    1.069588    1.829130
     53          1    20001029        5.081316   -1.893599   -0.054701
     54          1    20001034        8.455832   -2.031328   -1.026768
     55          1    20001034        6.975702   -2.109527   -1.975025
     56          1    20001034        7.116429   -3.064368   -0.502386
     57          1    20001029        4.757325    2.607371    0.794012
     58          1    20001035        4.118491    4.232716   -0.711399
     59          1    20001035        3.574293    2.996397   -1.840777
     60          1    20001035        5.287039    3.363581   -1.711551
     61          1    20001029       -5.744554   -1.885280    0.577369
     62          1    20001034       -8.864377   -0.473341    1.387294
     63          1    20001034       -7.682718   -1.682187    1.911462
     64          1    20001034       -8.521329   -1.871954    0.378434
 ---------------------------------------------------------------------

 SCF Done:  E(RHF) =  -1295.61262126     A.U. after   14 cycles

 The electronic state is 1-A.
 Alpha  occ. eigenvalues --  -20.53645 -20.52043 -20.51861 -20.51579 -15.59603
 Alpha  occ. eigenvalues --  -15.57870 -15.57543 -15.57516 -11.35964 -11.34252
 Alpha  occ. eigenvalues --  -11.33871 -11.33663 -11.29023 -11.28558 -11.24935
 Alpha  occ. eigenvalues --  -11.24908 -11.24354 -11.24004 -11.23410 -11.22632
 Alpha  occ. eigenvalues --  -11.22599 -11.22523 -11.22303 -11.22163 -11.21961
 Alpha  occ. eigenvalues --  -11.21785 -11.21625 -11.20837  -1.40583  -1.39358
 Alpha  occ. eigenvalues --   -1.38719  -1.38081  -1.25430  -1.23542  -1.22584
 Alpha  occ. eigenvalues --   -1.22087  -1.10756  -1.09250  -1.07169  -1.04213
 Alpha  occ. eigenvalues --   -1.01219  -0.99317  -0.98734  -0.95524  -0.95152
 Alpha  occ. eigenvalues --   -0.94571  -0.92171  -0.87286  -0.85652  -0.82841
 Alpha  occ. eigenvalues --   -0.81279  -0.79480  -0.78699  -0.77187  -0.76855
 Alpha  occ. eigenvalues --   -0.72042  -0.71330  -0.71153  -0.68954  -0.67962
 Alpha  occ. eigenvalues --   -0.66704  -0.65818  -0.64507  -0.63899  -0.63684
 Alpha  occ. eigenvalues --   -0.62600  -0.62380  -0.61712  -0.61397  -0.61095
 Alpha  occ. eigenvalues --   -0.60893  -0.59902  -0.59330  -0.58675  -0.58450
 Alpha  occ. eigenvalues --   -0.58247  -0.57733  -0.56546  -0.56453  -0.56168
 Alpha  occ. eigenvalues --   -0.55407  -0.54817  -0.54734  -0.54567  -0.54083
 Alpha  occ. eigenvalues --   -0.53133  -0.52792  -0.52489  -0.52093  -0.51639
 Alpha  occ. eigenvalues --   -0.51029  -0.50375  -0.49763  -0.49319  -0.48692
 Alpha  occ. eigenvalues --   -0.48281  -0.47056  -0.46244  -0.44966  -0.42861
 Alpha  occ. eigenvalues --   -0.41934  -0.41497  -0.41059  -0.39289  -0.38823
 Alpha  occ. eigenvalues --   -0.38329  -0.38264  -0.33512
 Alpha virt. eigenvalues --    0.16276   0.18802   0.19676   0.20018   0.20230
 Alpha virt. eigenvalues --    0.21611   0.21937   0.23104   0.23511   0.23814
 Alpha virt. eigenvalues --    0.25440   0.25686   0.26517   0.26985   0.27450

 Mulliken atomic charges:
              1
     1  C   -0.279482
     2  N   -0.783236
     3  C    0.821715
     4  O   -0.628499
     5  C    0.102237
     6  C   -0.472663
     7  C   -0.333847
     8  C   -0.314555
     9  C   -0.372497
    10  C   -0.181769
    11  C   -0.179539
    12  C   -0.352608
    13  C   -0.312985
    14  C   -0.329248
    15  C    0.091413
    16  C   -0.509709
    17  N   -0.787649
    18  C    0.767328
    19  C   -0.595667
    20  O   -0.613759
    21  C    0.820554
    22  O   -0.639796
    23  N   -0.805797
    24  C   -0.275609
    25  N   -0.843025
    26  C    0.744595
    27  C   -0.588692
    28  O   -0.591816
    29  H    0.186916
    30  H    0.197938
    31  H    0.162467
    32  H    0.391434
    33  H    0.199200
    34  H    0.144172
    35  H    0.212393
    36  H    0.161394
    37  H    0.181314
    38  H    0.163905
    39  H    0.178989
    40  H    0.216315
    41  H    0.178470
    42  H    0.180097
    43  H    0.170663
    44  H    0.177462
    45  H    0.164553
    46  H    0.149152
    47  H    0.198945
    48  H    0.173166
    49  H    0.185053
    50  H    0.183451
    51  H    0.148842
    52  H    0.226666
    53  H    0.389698
    54  H    0.211213
    55  H    0.209327
    56  H    0.176140
    57  H    0.395493
    58  H    0.165539
    59  H    0.199565
    60  H    0.184804
    61  H    0.382646
    62  H    0.218602
    63  H    0.177235
    64  H    0.201386
 Sum of Mulliken atomic charges =   0.00000

 Dipole moment (field-independent basis, Debye):
    X=             -2.6934    Y=             -5.2076    Z=              5.5752  Tot=              8.0905
 Quadrupole moment (field-independent basis, Debye-Ang):
   XX=           -194.5307   YY=           -156.2105   ZZ=           -172.2056
   XY=             20.3685   XZ=            -11.0112   YZ=              9.5248

 Normal termination of Gaussian 09 at Thu Dec  5 17:30:32 2019.
