 Gaussian 09, Revision A.02,
 Gaussian 09:  EM64L-G09RevA.02 11-Jun-2009

 ---------------------------------
 #SP HF/6-31G* Geom=(ModRedundant)
 ---------------------------------

 ------------
 paramfit run
 ------------
 Symbolic Z-matrix:
 Charge =  0 Multiplicity = 1

                         Standard orientation:
 ---------------------------------------------------------------------
 Center     Atomic      Atomic             Coordinates (Angstroms)
 Number     Number       Type             X           Y           Z
 ---------------------------------------------------------------------
      1          6    20001001       -3.278013    2.602249   -1.044238
      2          7    20001014       -3.770528    1.458639   -0.304758
      3          6    20001002       -4.312865    0.409659   -0.966287
      4          8    20001024       -4.208968    0.272071   -2.153730
      5          6    90000001       -4.960945   -0.684492   -0.098986
      6          6    90000002       -5.907887   -1.527530   -0.959468
      7          6    90000002       -3.863521   -1.560848    0.563783
      8          6    90000002       -2.887405   -2.341616   -0.334680
      9          6    90000002       -1.668991   -1.582186   -0.896256
     10          6    20001004       -0.795324   -0.952499    0.163215
     11          6    20001004        0.329062   -1.431462    0.670272
     12          6    90000002        1.441033   -2.138160   -0.067193
     13          6    90000002        2.675353   -1.260995   -0.343958
     14          6    90000002        3.337753   -0.747941    0.941700
     15          6    90000002        4.690910   -0.001125    0.815699
     16          6    90000002        5.102053    0.456631    2.224554
     17          7    20001014        5.686551   -0.929345    0.297396
     18          6    20001002        6.937740   -0.510937   -0.052629
     19          6    20001001        7.716352   -1.479423   -0.913210
     20          8    20001024        7.392072    0.544156    0.293064
     21          6    20001002        4.524668    1.149121   -0.203134
     22          8    20001024        4.623220    0.934064   -1.381254
     23          7    20001014        4.167664    2.359584    0.277815
     24          6    20001001        4.044555    3.492601   -0.616232
     25          7    20001014       -5.687418   -0.082020    1.028265
     26          6    20001002       -6.725985    0.789276    0.880305
     27          6    20001001       -7.558644    1.014424    2.125338
     28          8    20001024       -6.959026    1.347640   -0.154133
     29          1    20001035       -4.079025    3.134641   -1.544125
     30          1    20001035       -2.565763    2.276640   -1.788148
     31          1    20001035       -2.781552    3.272548   -0.353890
     32          1    20001029       -4.099164    1.619635    0.618478
     33          1    20001034       -5.390480   -1.958099   -1.803170
     34          1    20001034       -6.329087   -2.326395   -0.356440
     35          1    20001034       -6.711013   -0.916294   -1.344573
     36          1    20001034       -4.397193   -2.291745    1.167276
     37          1    20001034       -3.303285   -0.943458    1.258941
     38          1    20001034       -2.510115   -3.165210    0.264456
     39          1    20001034       -3.424941   -2.792825   -1.162231
     40          1    20001034       -1.995462   -0.815760   -1.587177
     41          1    20001034       -1.094040   -2.289359   -1.483769
     42          1    20001033       -1.139582   -0.001289    0.535772
     43          1    20001033        0.484313   -1.306581    1.730490
     44          1    20001034        1.079575   -2.523024   -1.013076
     45          1    20001034        1.746359   -3.005861    0.516300
     46          1    20001034        3.374794   -1.850284   -0.930384
     47          1    20001034        2.388299   -0.427877   -0.971929
     48          1    20001034        3.506793   -1.582633    1.618641
     49          1    20001034        2.649145   -0.077225    1.442008
     50          1    20001034        5.292769   -0.420177    2.832349
     51          1    20001034        4.306007    1.017131    2.703650
     52          1    20001034        6.001312    1.053807    2.203269
     53          1    20001029        5.326638   -1.672147   -0.257058
     54          1    20001034        8.769655   -1.259364   -0.828441
     55          1    20001034        7.414214   -1.343333   -1.947288
     56          1    20001034        7.532367   -2.511532   -0.635213
     57          1    20001029        4.330804    2.553803    1.237488
     58          1    20001035        3.636421    4.327441   -0.061804
     59          1    20001035        3.374422    3.246572   -1.426799
     60          1    20001035        5.002622    3.778558   -1.038239
     61          1    20001029       -5.658252   -0.594979    1.881242
     62          1    20001034       -8.072896    1.960144    2.035159
     63          1    20001034       -6.957536    1.009735    3.027667
     64          1    20001034       -8.298780    0.224848    2.206404
 ---------------------------------------------------------------------

 SCF Done:  E(RHF) =  -1295.58762983     A.U. after   14 cycles

 The electronic state is 1-A.
 Alpha  occ. eigenvalues --  -20.53660 -20.52084 -20.51819 -20.51672 -15.59620
 Alpha  occ. eigenvalues --  -15.58014 -15.57560 -15.57514 -11.35980 -11.34287
 Alpha  occ. eigenvalues --  -11.33837 -11.33757 -11.29028 -11.28610 -11.25135
 Alpha  occ. eigenvalues --  -11.24876 -11.24378 -11.23994 -11.23381 -11.22864
 Alpha  occ. eigenvalues --  -11.22533 -11.22528 -11.22468 -11.22359 -11.22169
 Alpha  occ. eigenvalues --  -11.21869 -11.21641 -11.20873  -1.40594  -1.39423
 Alpha  occ. eigenvalues --   -1.38679  -1.38151  -1.25438  -1.23590  -1.22723
 Alpha  occ. eigenvalues --   -1.22064  -1.10728  -1.09304  -1.07213  -1.04299
 Alpha  occ. eigenvalues --   -1.01280  -0.99351  -0.98771  -0.95505  -0.95201
 Alpha  occ. eigenvalues --   -0.94652  -0.92141  -0.87248  -0.85725  -0.82838
 Alpha  occ. eigenvalues --   -0.81387  -0.79558  -0.78837  -0.77166  -0.76957
 Alpha  occ. eigenvalues --   -0.71918  -0.71285  -0.71101  -0.68959  -0.67975
 Alpha  occ. eigenvalues --   -0.66262  -0.65897  -0.64647  -0.64070  -0.63840
 Alpha  occ. eigenvalues --   -0.62569  -0.62203  -0.61984  -0.61500  -0.61223
 Alpha  occ. eigenvalues --   -0.61008  -0.59924  -0.59309  -0.58834  -0.58489
 Alpha  occ. eigenvalues --   -0.58161  -0.57746  -0.56864  -0.56462  -0.56211
 Alpha  occ. eigenvalues --   -0.55519  -0.54934  -0.54804  -0.54539  -0.54015
 Alpha  occ. eigenvalues --   -0.53137  -0.52918  -0.52540  -0.52270  -0.51607
 Alpha  occ. eigenvalues --   -0.51030  -0.50555  -0.49817  -0.49008  -0.48617
 Alpha  occ. eigenvalues --   -0.48329  -0.46915  -0.46263  -0.45710  -0.42886
 Alpha  occ. eigenvalues --   -0.41930  -0.41552  -0.41100  -0.39281  -0.38915
 Alpha  occ. eigenvalues --   -0.38357  -0.38296  -0.31561
 Alpha virt. eigenvalues --    0.15116   0.18783   0.19575   0.19945   0.20172
 Alpha virt. eigenvalues --    0.21441   0.21688   0.23129   0.23295   0.24264
 Alpha virt. eigenvalues --    0.25252   0.25738   0.26485   0.26947   0.27653

 Mulliken atomic charges:
              1
     1  C   -0.279945
     2  N   -0.783436
     3  C    0.822298
     4  O   -0.627716
     5  C    0.102292
     6  C   -0.472997
     7  C   -0.334739
     8  C   -0.308859
     9  C   -0.365623
    10  C   -0.184013
    11  C   -0.183357
    12  C   -0.346030
    13  C   -0.307800
    14  C   -0.328070
    15  C    0.090327
    16  C   -0.509346
    17  N   -0.787431
    18  C    0.767227
    19  C   -0.595745
    20  O   -0.614129
    21  C    0.820588
    22  O   -0.638819
    23  N   -0.806564
    24  C   -0.275375
    25  N   -0.843042
    26  C    0.744541
    27  C   -0.588642
    28  O   -0.591612
    29  H    0.187028
    30  H    0.199037
    31  H    0.161866
    32  H    0.391024
    33  H    0.198570
    34  H    0.143972
    35  H    0.212693
    36  H    0.160931
    37  H    0.182537
    38  H    0.165040
    39  H    0.182691
    40  H    0.205044
    41  H    0.170335
    42  H    0.185615
    43  H    0.172252
    44  H    0.177829
    45  H    0.149892
    46  H    0.155061
    47  H    0.198805
    48  H    0.173472
    49  H    0.183871
    50  H    0.183888
    51  H    0.147417
    52  H    0.226530
    53  H    0.389917
    54  H    0.211167
    55  H    0.209690
    56  H    0.176668
    57  H    0.395169
    58  H    0.163799
    59  H    0.199100
    60  H    0.185713
    61  H    0.382390
    62  H    0.218676
    63  H    0.176980
    64  H    0.201345
 Sum of Mulliken atomic charges =   0.00000

 Dipole moment (field-independent basis, Debye):
    X=             -2.1710    Y=             -2.2285    Z=              7.4556  Tot=              8.0787
 Quadrupole moment (field-independent basis, Debye-Ang):
   XX=           -199.4190   YY=           -156.1386   ZZ=           -174.6606
   XY=             -2.9318   XZ=            -28.4486   YZ=              7.4779

 Normal termination of Gaussian 09 at Thu Dec  5 18:02:39 2019.
