 Gaussian 09, Revision A.02,
 Gaussian 09:  EM64L-G09RevA.02 11-Jun-2009

 ---------------------------------
 #SP HF/6-31G* Geom=(ModRedundant)
 ---------------------------------

 ------------
 paramfit run
 ------------
 Symbolic Z-matrix:
 Charge =  0 Multiplicity = 1

                         Standard orientation:
 ---------------------------------------------------------------------
 Center     Atomic      Atomic             Coordinates (Angstroms)
 Number     Number       Type             X           Y           Z
 ---------------------------------------------------------------------
      1          6    20001001        5.070257   -1.602903    2.442696
      2          7    20001014        4.702125   -0.610747    1.454085
      3          6    20001002        4.449369   -0.989397    0.179390
      4          8    20001024        4.295139   -2.137238   -0.134329
      5          6    90000001        4.230607    0.143267   -0.839728
      6          6    90000002        4.422315   -0.399934   -2.259595
      7          6    90000002        2.819040    0.763533   -0.654388
      8          6    90000002        1.580027   -0.131676   -0.836274
      9          6    90000002        1.143374   -1.000226    0.360217
     10          6    20001004        0.868039   -0.215517    1.621447
     11          6    20001004       -0.306478    0.181282    2.083851
     12          6    90000002       -1.113113    1.376645    1.636414
     13          6    90000002       -2.296726    1.033096    0.714134
     14          6    90000002       -3.323368    0.111605    1.386275
     15          6    90000002       -4.650596   -0.170088    0.635435
     16          6    90000002       -5.464894   -1.158598    1.485857
     17          7    20001014       -5.386054    1.080684    0.508155
     18          6    20001002       -6.526912    1.164593   -0.236466
     19          6    20001001       -6.958253    2.570550   -0.585801
     20          8    20001024       -7.146054    0.199929   -0.590343
     21          6    20001002       -4.313740   -0.680227   -0.784076
     22          8    20001024       -4.071311    0.098794   -1.666281
     23          7    20001014       -4.204674   -2.015360   -0.955846
     24          6    20001001       -3.941457   -2.562755   -2.270866
     25          7    20001014        5.161165    1.251865   -0.581843
     26          6    20001002        6.518443    1.123823   -0.614586
     27          6    20001001        7.285925    2.428119   -0.677061
     28          8    20001024        7.068297    0.059463   -0.583947
     29          1    20001035        6.031690   -2.053036    2.223659
     30          1    20001035        4.324371   -2.383637    2.471529
     31          1    20001035        5.113960   -1.124394    3.412991
     32          1    20001029        5.046445    0.311727    1.583586
     33          1    20001034        3.759080   -1.228977   -2.453861
     34          1    20001034        4.223178    0.389442   -2.978251
     35          1    20001034        5.434791   -0.751543   -2.394467
     36          1    20001034        2.749707    1.559578   -1.392443
     37          1    20001034        2.779829    1.245646    0.317368
     38          1    20001034        0.754120    0.531717   -1.075868
     39          1    20001034        1.710411   -0.774477   -1.700670
     40          1    20001034        1.894664   -1.751182    0.567561
     41          1    20001034        0.255036   -1.542058    0.055082
     42          1    20001033        1.739513    0.039124    2.202656
     43          1    20001033       -0.752719   -0.409718    2.868292
     44          1    20001034       -0.477878    2.087691    1.122258
     45          1    20001034       -1.489709    1.890321    2.520103
     46          1    20001034       -2.758621    1.967373    0.407290
     47          1    20001034       -1.922676    0.574316   -0.191646
     48          1    20001034       -3.597356    0.522619    2.355570
     49          1    20001034       -2.855516   -0.847126    1.576798
     50          1    20001034       -5.737379   -0.673527    2.415931
     51          1    20001034       -4.878879   -2.036626    1.736920
     52          1    20001034       -6.372411   -1.461658    0.985550
     53          1    20001029       -4.827632    1.903408    0.506802
     54          1    20001034       -8.010014    2.567439   -0.828391
     55          1    20001034       -6.400477    2.896721   -1.458511
     56          1    20001034       -6.768987    3.268398    0.222633
     57          1    20001029       -4.637203   -2.614160   -0.292772
     58          1    20001035       -3.771199   -3.627000   -2.174343
     59          1    20001035       -3.058648   -2.101096   -2.688175
     60          1    20001035       -4.770463   -2.394083   -2.950610
     61          1    20001029        4.798637    2.164279   -0.748042
     62          1    20001034        8.289314    2.260574   -0.313589
     63          1    20001034        6.812502    3.211317   -0.095665
     64          1    20001034        7.342859    2.758768   -1.709162
 ---------------------------------------------------------------------

 SCF Done:  E(RHF) =  -1295.47720265     A.U. after   16 cycles

 The electronic state is 1-A.
 Alpha  occ. eigenvalues --  -20.53608 -20.52135 -20.51853 -20.51750 -15.59564
 Alpha  occ. eigenvalues --  -15.58053 -15.57595 -15.57502 -11.35926 -11.34345
 Alpha  occ. eigenvalues --  -11.33854 -11.33824 -11.28980 -11.28657 -11.25153
 Alpha  occ. eigenvalues --  -11.24841 -11.24317 -11.23973 -11.23520 -11.22978
 Alpha  occ. eigenvalues --  -11.22627 -11.22251 -11.22203 -11.22162 -11.21982
 Alpha  occ. eigenvalues --  -11.21926 -11.21852 -11.20770  -1.40547  -1.39486
 Alpha  occ. eigenvalues --   -1.38709  -1.38217  -1.25392  -1.23631  -1.22764
 Alpha  occ. eigenvalues --   -1.22046  -1.10706  -1.09254  -1.07194  -1.04300
 Alpha  occ. eigenvalues --   -1.01246  -0.99347  -0.98808  -0.95473  -0.95361
 Alpha  occ. eigenvalues --   -0.94738  -0.92062  -0.87295  -0.85586  -0.82816
 Alpha  occ. eigenvalues --   -0.81207  -0.79603  -0.78650  -0.77151  -0.76995
 Alpha  occ. eigenvalues --   -0.72710  -0.71513  -0.71160  -0.68960  -0.67959
 Alpha  occ. eigenvalues --   -0.66062  -0.65597  -0.64536  -0.64048  -0.63628
 Alpha  occ. eigenvalues --   -0.62572  -0.62442  -0.61795  -0.61515  -0.61131
 Alpha  occ. eigenvalues --   -0.60874  -0.60035  -0.59348  -0.58748  -0.58569
 Alpha  occ. eigenvalues --   -0.58226  -0.57385  -0.57157  -0.56606  -0.56167
 Alpha  occ. eigenvalues --   -0.55295  -0.54899  -0.54611  -0.54470  -0.54334
 Alpha  occ. eigenvalues --   -0.53747  -0.52963  -0.52709  -0.52194  -0.51932
 Alpha  occ. eigenvalues --   -0.50990  -0.50755  -0.49842  -0.49296  -0.48775
 Alpha  occ. eigenvalues --   -0.47803  -0.47359  -0.46871  -0.46054  -0.42833
 Alpha  occ. eigenvalues --   -0.41897  -0.41623  -0.41158  -0.39255  -0.38963
 Alpha  occ. eigenvalues --   -0.38414  -0.38296  -0.24638
 Alpha virt. eigenvalues --    0.07953   0.18835   0.19547   0.20053   0.20113
 Alpha virt. eigenvalues --    0.21395   0.21519   0.22966   0.23493   0.23825
 Alpha virt. eigenvalues --    0.25498   0.25700   0.25987   0.26949   0.27464

 Mulliken atomic charges:
              1
     1  C   -0.278993
     2  N   -0.782436
     3  C    0.821560
     4  O   -0.629953
     5  C    0.102431
     6  C   -0.471980
     7  C   -0.332481
     8  C   -0.319466
     9  C   -0.346627
    10  C   -0.207708
    11  C   -0.213802
    12  C   -0.326565
    13  C   -0.315821
    14  C   -0.327509
    15  C    0.092065
    16  C   -0.509885
    17  N   -0.787445
    18  C    0.767276
    19  C   -0.595575
    20  O   -0.613799
    21  C    0.819648
    22  O   -0.640309
    23  N   -0.806411
    24  C   -0.275450
    25  N   -0.843066
    26  C    0.744702
    27  C   -0.588671
    28  O   -0.591927
    29  H    0.186309
    30  H    0.197785
    31  H    0.163062
    32  H    0.391286
    33  H    0.199036
    34  H    0.144975
    35  H    0.211782
    36  H    0.162547
    37  H    0.174408
    38  H    0.167448
    39  H    0.172994
    40  H    0.222723
    41  H    0.178884
    42  H    0.190536
    43  H    0.182983
    44  H    0.175210
    45  H    0.174999
    46  H    0.141629
    47  H    0.193605
    48  H    0.174491
    49  H    0.180194
    50  H    0.184210
    51  H    0.149233
    52  H    0.226681
    53  H    0.389819
    54  H    0.211410
    55  H    0.208581
    56  H    0.176336
    57  H    0.396356
    58  H    0.166611
    59  H    0.196886
    60  H    0.185488
    61  H    0.382538
    62  H    0.218527
    63  H    0.177085
    64  H    0.201552
 Sum of Mulliken atomic charges =   0.00000

 Dipole moment (field-independent basis, Debye):
    X=              0.9526    Y=              5.3822    Z=              3.0316  Tot=              6.2503
 Quadrupole moment (field-independent basis, Debye-Ang):
   XX=           -205.7747   YY=           -156.3462   ZZ=           -169.7382
   XY=             29.4927   XZ=             -6.3860   YZ=             -1.8810

 Normal termination of Gaussian 09 at Thu Dec  5 18:09:33 2019.
