 Gaussian 09, Revision A.02,
 Gaussian 09:  EM64L-G09RevA.02 11-Jun-2009

 ---------------------------------
 #SP HF/6-31G* Geom=(ModRedundant)
 ---------------------------------

 ------------
 paramfit run
 ------------
 Symbolic Z-matrix:
 Charge =  0 Multiplicity = 1

                         Standard orientation:
 ---------------------------------------------------------------------
 Center     Atomic      Atomic             Coordinates (Angstroms)
 Number     Number       Type             X           Y           Z
 ---------------------------------------------------------------------
      1          6    20001001        3.555793   -0.172344    3.030133
      2          7    20001014        3.622498    0.110359    1.611375
      3          6    20001002        4.423822   -0.632040    0.812105
      4          8    20001024        4.920027   -1.662802    1.174121
      5          6    90000001        4.562574   -0.158973   -0.646093
      6          6    90000002        5.813366   -0.784962   -1.271792
      7          6    90000002        3.283627   -0.520796   -1.449201
      8          6    90000002        2.880557   -2.000218   -1.585144
      9          6    90000002        2.095885   -2.637548   -0.421212
     10          6    20001004        0.811228   -1.919602   -0.079911
     11          6    20001004       -0.415487   -2.237075   -0.460881
     12          6    90000002       -1.590628   -2.582403    0.422037
     13          6    90000002       -2.612367   -1.443540    0.591174
     14          6    90000002       -3.248352   -1.016022   -0.738361
     15          6    90000002       -4.421534   -0.003038   -0.691954
     16          6    90000002       -4.830346    0.301393   -2.142349
     17          7    20001014       -5.539925   -0.620225    0.007912
     18          6    20001002       -6.661331    0.089800    0.326298
     19          6    20001001       -7.552089   -0.556192    1.362662
     20          8    20001024       -6.926783    1.147079   -0.174541
     21          6    20001002       -3.969960    1.235676    0.114516
     22          8    20001024       -4.029042    1.231905    1.314692
     23          7    20001014       -3.420219    2.259570   -0.573530
     24          6    20001001       -3.022518    3.470716    0.114336
     25          7    20001014        4.636132    1.308208   -0.704386
     26          6    20001002        5.609786    2.042013   -0.093484
     27          6    20001001        5.718675    3.479395   -0.558453
     28          8    20001024        6.321417    1.590077    0.758265
     29          1    20001035        4.497581    0.031333    3.526621
     30          1    20001035        3.304553   -1.211573    3.183774
     31          1    20001035        2.781268    0.443762    3.469311
     32          1    20001029        3.452091    1.045659    1.324215
     33          1    20001034        5.781146   -1.862341   -1.215686
     34          1    20001034        5.884379   -0.486075   -2.313359
     35          1    20001034        6.700098   -0.455905   -0.749917
     36          1    20001034        3.452022   -0.141399   -2.454646
     37          1    20001034        2.451421    0.047191   -1.045339
     38          1    20001034        2.259142   -2.069034   -2.473247
     39          1    20001034        3.757878   -2.607033   -1.783783
     40          1    20001034        2.718582   -2.688125    0.462561
     41          1    20001034        1.887985   -3.664663   -0.699864
     42          1    20001033        0.923884   -1.052883    0.551136
     43          1    20001033       -0.614344   -2.251231   -1.521078
     44          1    20001034       -1.247398   -2.878886    1.405784
     45          1    20001034       -2.095084   -3.451829    0.002256
     46          1    20001034       -3.371142   -1.781576    1.291436
     47          1    20001034       -2.129470   -0.596937    1.061180
     48          1    20001034       -3.619271   -1.895449   -1.260436
     49          1    20001034       -2.478806   -0.583577   -1.366963
     50          1    20001034       -5.225953   -0.603598   -2.588517
     51          1    20001034       -3.975338    0.609047   -2.735385
     52          1    20001034       -5.594813    1.062361   -2.189861
     53          1    20001029       -5.293047   -1.323874    0.665666
     54          1    20001034       -8.546845   -0.145712    1.278831
     55          1    20001034       -7.161070   -0.323144    2.348521
     56          1    20001034       -7.588590   -1.634771    1.254421
     57          1    20001029       -3.606778    2.329798   -1.545937
     58          1    20001035       -2.499710    4.109583   -0.585267
     59          1    20001035       -2.359446    3.225507    0.930935
     60          1    20001035       -3.877530    4.005216    0.515608
     61          1    20001029        4.191245    1.729601   -1.489275
     62          1    20001034        6.207603    4.059135    0.210848
     63          1    20001034        4.750512    3.912717   -0.783045
     64          1    20001034        6.324683    3.517810   -1.457942
 ---------------------------------------------------------------------

 SCF Done:  E(RHF) =  -1295.53961603     A.U. after   15 cycles

 The electronic state is 1-A.
 Alpha  occ. eigenvalues --  -20.53657 -20.52259 -20.51993 -20.51863 -15.59628
 Alpha  occ. eigenvalues --  -15.58392 -15.57722 -15.57488 -11.35978 -11.34457
 Alpha  occ. eigenvalues --  -11.34070 -11.33870 -11.29051 -11.28832 -11.25627
 Alpha  occ. eigenvalues --  -11.24776 -11.24373 -11.24065 -11.23624 -11.22749
 Alpha  occ. eigenvalues --  -11.22678 -11.22492 -11.22237 -11.22172 -11.22076
 Alpha  occ. eigenvalues --  -11.21996 -11.21886 -11.20874  -1.40594  -1.39670
 Alpha  occ. eigenvalues --   -1.38720  -1.38402  -1.25448  -1.23772  -1.23095
 Alpha  occ. eigenvalues --   -1.22038  -1.10651  -1.09395  -1.07252  -1.04473
 Alpha  occ. eigenvalues --   -1.01278  -0.99411  -0.98894  -0.95587  -0.95444
 Alpha  occ. eigenvalues --   -0.94973  -0.91951  -0.87355  -0.85669  -0.82914
 Alpha  occ. eigenvalues --   -0.81262  -0.79807  -0.78748  -0.77244  -0.77150
 Alpha  occ. eigenvalues --   -0.72899  -0.71694  -0.71213  -0.69077  -0.68096
 Alpha  occ. eigenvalues --   -0.65977  -0.65385  -0.64769  -0.64271  -0.63869
 Alpha  occ. eigenvalues --   -0.62601  -0.62518  -0.61926  -0.61732  -0.61203
 Alpha  occ. eigenvalues --   -0.60917  -0.60047  -0.59216  -0.59161  -0.58849
 Alpha  occ. eigenvalues --   -0.58142  -0.57742  -0.56952  -0.56669  -0.56273
 Alpha  occ. eigenvalues --   -0.55579  -0.55114  -0.54608  -0.54517  -0.54256
 Alpha  occ. eigenvalues --   -0.53653  -0.52770  -0.52648  -0.52223  -0.52128
 Alpha  occ. eigenvalues --   -0.51046  -0.50917  -0.50031  -0.49421  -0.48497
 Alpha  occ. eigenvalues --   -0.48173  -0.47333  -0.46781  -0.46013  -0.42882
 Alpha  occ. eigenvalues --   -0.41947  -0.41816  -0.41287  -0.39294  -0.39204
 Alpha  occ. eigenvalues --   -0.38670  -0.38284  -0.28172
 Alpha virt. eigenvalues --    0.11465   0.18785   0.19373   0.19961   0.20124
 Alpha virt. eigenvalues --    0.21281   0.21381   0.22883   0.23715   0.24096
 Alpha virt. eigenvalues --    0.25445   0.25989   0.26251   0.26838   0.27574

 Mulliken atomic charges:
              1
     1  C   -0.279808
     2  N   -0.782410
     3  C    0.821458
     4  O   -0.629594
     5  C    0.102625
     6  C   -0.472214
     7  C   -0.332721
     8  C   -0.316363
     9  C   -0.347803
    10  C   -0.200822
    11  C   -0.200262
    12  C   -0.330069
    13  C   -0.314611
    14  C   -0.327382
    15  C    0.092003
    16  C   -0.509458
    17  N   -0.787416
    18  C    0.767020
    19  C   -0.595668
    20  O   -0.614616
    21  C    0.819811
    22  O   -0.638526
    23  N   -0.807368
    24  C   -0.274459
    25  N   -0.842845
    26  C    0.744796
    27  C   -0.588652
    28  O   -0.591484
    29  H    0.186347
    30  H    0.197759
    31  H    0.164919
    32  H    0.391422
    33  H    0.198812
    34  H    0.143837
    35  H    0.212412
    36  H    0.160559
    37  H    0.177916
    38  H    0.161727
    39  H    0.174617
    40  H    0.221128
    41  H    0.179196
    42  H    0.181458
    43  H    0.167188
    44  H    0.185526
    45  H    0.172340
    46  H    0.146503
    47  H    0.192353
    48  H    0.175037
    49  H    0.178396
    50  H    0.185188
    51  H    0.146612
    52  H    0.226539
    53  H    0.390818
    54  H    0.211372
    55  H    0.209333
    56  H    0.177329
    57  H    0.395668
    58  H    0.162430
    59  H    0.195799
    60  H    0.187233
    61  H    0.382055
    62  H    0.219060
    63  H    0.176839
    64  H    0.201112
 Sum of Mulliken atomic charges =   0.00000

 Dipole moment (field-independent basis, Debye):
    X=             -1.0861    Y=              1.9718    Z=             -4.6759  Tot=              5.1896
 Quadrupole moment (field-independent basis, Debye-Ang):
   XX=           -221.2613   YY=           -161.8646   ZZ=           -166.0120
   XY=             34.8807   XZ=            -18.1996   YZ=             -6.4513

 Normal termination of Gaussian 09 at Thu Dec  5 18:42:31 2019.
