 Gaussian 09, Revision A.02,
 Gaussian 09:  EM64L-G09RevA.02 11-Jun-2009

 ---------------------------------
 #SP HF/6-31G* Geom=(ModRedundant)
 ---------------------------------

 ------------
 paramfit run
 ------------
 Symbolic Z-matrix:
 Charge =  0 Multiplicity = 1

                         Standard orientation:
 ---------------------------------------------------------------------
 Center     Atomic      Atomic             Coordinates (Angstroms)
 Number     Number       Type             X           Y           Z
 ---------------------------------------------------------------------
      1          6    20001001        4.305446   -1.563108    2.627808
      2          7    20001014        3.949771   -0.670912    1.543960
      3          6    20001002        4.515368   -0.830944    0.324698
      4          8    20001024        5.134603   -1.813900    0.024544
      5          6    90000001        4.209852    0.258383   -0.719050
      6          6    90000002        5.250960    0.199680   -1.841765
      7          6    90000002        2.768966    0.081009   -1.270401
      8          6    90000002        2.401850   -1.227134   -1.994020
      9          6    90000002        2.010996   -2.439436   -1.125576
     10          6    20001004        0.852015   -2.178900   -0.192215
     11          6    20001004       -0.419084   -2.496583   -0.376987
     12          6    90000002       -1.495151   -2.626484    0.674184
     13          6    90000002       -2.456706   -1.426699    0.748289
     14          6    90000002       -3.227753   -1.203873   -0.559667
     15          6    90000002       -4.357456   -0.141629   -0.567118
     16          6    90000002       -4.920392   -0.071881   -1.995995
     17          7    20001014       -5.406156   -0.573314    0.346888
     18          6    20001002       -6.462275    0.235179    0.653497
     19          6    20001001       -7.247278   -0.178066    1.877345
     20          8    20001024       -6.751930    1.202125    0.005224
     21          6    20001002       -3.780136    1.193782   -0.045482
     22          8    20001024       -3.701562    1.399719    1.135765
     23          7    20001014       -3.282726    2.055576   -0.958650
     24          6    20001001       -2.773288    3.346082   -0.542392
     25          7    20001014        4.206225    1.586348   -0.088234
     26          6    20001002        5.285139    2.124441    0.549002
     27          6    20001001        5.199394    3.613491    0.812626
     28          8    20001024        6.228928    1.468523    0.888376
     29          1    20001035        5.341608   -1.445351    2.923532
     30          1    20001035        4.149816   -2.587648    2.323146
     31          1    20001035        3.666744   -1.349010    3.475496
     32          1    20001029        3.667556    0.250146    1.785400
     33          1    20001034        5.278309   -0.777694   -2.298848
     34          1    20001034        5.007374    0.938703   -2.599227
     35          1    20001034        6.236859    0.406959   -1.451937
     36          1    20001034        2.625820    0.891240   -1.981917
     37          1    20001034        2.066780    0.258755   -0.461933
     38          1    20001034        1.554232   -0.997359   -2.633055
     39          1    20001034        3.207806   -1.522814   -2.657634
     40          1    20001034        2.863251   -2.771995   -0.547278
     41          1    20001034        1.771901   -3.253274   -1.801101
     42          1    20001033        1.107688   -1.679293    0.728185
     43          1    20001033       -0.738298   -2.683370   -1.390384
     44          1    20001034       -1.050508   -2.765575    1.652147
     45          1    20001034       -2.069811   -3.529371    0.471316
     46          1    20001034       -3.140014   -1.601353    1.574703
     47          1    20001034       -1.898380   -0.536555    1.006644
     48          1    20001034       -3.681815   -2.140781   -0.875205
     49          1    20001034       -2.522757   -0.924523   -1.333809
     50          1    20001034       -5.391037   -1.019652   -2.230096
     51          1    20001034       -4.130153    0.086624   -2.722479
     52          1    20001034       -5.662442    0.706160   -2.094746
     53          1    20001029       -5.106532   -1.164407    1.088203
     54          1    20001034       -8.232521    0.260216    1.829740
     55          1    20001034       -6.739286    0.201824    2.758681
     56          1    20001034       -7.327793   -1.256051    1.965930
     57          1    20001029       -3.577186    1.966326   -1.902386
     58          1    20001035       -2.315327    3.828407   -1.395945
     59          1    20001035       -2.028659    3.212924    0.228595
     60          1    20001035       -3.560585    3.983075   -0.152317
     61          1    20001029        3.538113    2.230952   -0.448319
     62          1    20001034        5.866107    3.863198    1.625099
     63          1    20001034        4.191430    3.929904    1.056431
     64          1    20001034        5.518790    4.151181   -0.074323
 ---------------------------------------------------------------------

 SCF Done:  E(RHF) =  -1295.61370573     A.U. after   14 cycles

 The electronic state is 1-A.
 Alpha  occ. eigenvalues --  -20.53620 -20.52361 -20.52141 -20.51857 -15.59591
 Alpha  occ. eigenvalues --  -15.58524 -15.57835 -15.57497 -11.35938 -11.34560
 Alpha  occ. eigenvalues --  -11.34209 -11.33864 -11.29043 -11.28935 -11.25807
 Alpha  occ. eigenvalues --  -11.24830 -11.24307 -11.24044 -11.23713 -11.22779
 Alpha  occ. eigenvalues --  -11.22753 -11.22678 -11.22534 -11.22226 -11.22136
 Alpha  occ. eigenvalues --  -11.22024 -11.21798 -11.20884  -1.40560  -1.39797
 Alpha  occ. eigenvalues --   -1.38713  -1.38526  -1.25419  -1.23885  -1.23231
 Alpha  occ. eigenvalues --   -1.22047  -1.10734  -1.09464  -1.07300  -1.04553
 Alpha  occ. eigenvalues --   -1.01300  -0.99446  -0.98964  -0.95712  -0.95477
 Alpha  occ. eigenvalues --   -0.95065  -0.91928  -0.87409  -0.85654  -0.82967
 Alpha  occ. eigenvalues --   -0.81196  -0.79929  -0.78682  -0.77368  -0.77152
 Alpha  occ. eigenvalues --   -0.73653  -0.71851  -0.71191  -0.69074  -0.68190
 Alpha  occ. eigenvalues --   -0.65967  -0.65510  -0.64856  -0.64321  -0.63730
 Alpha  occ. eigenvalues --   -0.62654  -0.62475  -0.61966  -0.61837  -0.61221
 Alpha  occ. eigenvalues --   -0.60851  -0.60130  -0.59306  -0.59177  -0.58976
 Alpha  occ. eigenvalues --   -0.58156  -0.57878  -0.56802  -0.56647  -0.56378
 Alpha  occ. eigenvalues --   -0.55742  -0.55227  -0.54838  -0.54546  -0.54226
 Alpha  occ. eigenvalues --   -0.53580  -0.52840  -0.52491  -0.52341  -0.51732
 Alpha  occ. eigenvalues --   -0.51035  -0.50798  -0.50144  -0.49484  -0.48619
 Alpha  occ. eigenvalues --   -0.48377  -0.47077  -0.46434  -0.45502  -0.42855
 Alpha  occ. eigenvalues --   -0.41956  -0.41926  -0.41390  -0.39333  -0.39279
 Alpha  occ. eigenvalues --   -0.38805  -0.38295  -0.33536
 Alpha virt. eigenvalues --    0.16443   0.18828   0.19264   0.19999   0.20141
 Alpha virt. eigenvalues --    0.21214   0.21472   0.22793   0.23673   0.24004
 Alpha virt. eigenvalues --    0.25286   0.25854   0.26069   0.26895   0.27493

 Mulliken atomic charges:
              1
     1  C   -0.279877
     2  N   -0.782973
     3  C    0.821517
     4  O   -0.629183
     5  C    0.102556
     6  C   -0.472503
     7  C   -0.334595
     8  C   -0.312068
     9  C   -0.362867
    10  C   -0.181309
    11  C   -0.176849
    12  C   -0.344472
    13  C   -0.311178
    14  C   -0.328859
    15  C    0.090992
    16  C   -0.509748
    17  N   -0.787163
    18  C    0.767031
    19  C   -0.595734
    20  O   -0.614363
    21  C    0.820138
    22  O   -0.639653
    23  N   -0.806980
    24  C   -0.274090
    25  N   -0.842648
    26  C    0.744695
    27  C   -0.588892
    28  O   -0.591858
    29  H    0.186775
    30  H    0.197676
    31  H    0.163863
    32  H    0.392199
    33  H    0.198374
    34  H    0.143698
    35  H    0.212699
    36  H    0.160323
    37  H    0.182718
    38  H    0.160930
    39  H    0.177685
    40  H    0.215571
    41  H    0.174714
    42  H    0.175898
    43  H    0.163533
    44  H    0.179785
    45  H    0.166260
    46  H    0.149887
    47  H    0.191002
    48  H    0.176001
    49  H    0.181947
    50  H    0.185704
    51  H    0.147604
    52  H    0.226589
    53  H    0.390509
    54  H    0.211697
    55  H    0.208814
    56  H    0.177609
    57  H    0.396440
    58  H    0.163037
    59  H    0.193506
    60  H    0.187518
    61  H    0.382504
    62  H    0.218980
    63  H    0.178092
    64  H    0.200795
 Sum of Mulliken atomic charges =   0.00000

 Dipole moment (field-independent basis, Debye):
    X=             -2.3118    Y=              2.1376    Z=             -1.5075  Tot=              3.4909
 Quadrupole moment (field-independent basis, Debye-Ang):
   XX=           -228.2076   YY=           -163.9363   ZZ=           -160.4132
   XY=             35.9854   XZ=             -2.3992   YZ=             -8.7504

 Normal termination of Gaussian 09 at Thu Dec  5 19:04:29 2019.
