 Gaussian 09, Revision A.02,
 Gaussian 09:  EM64L-G09RevA.02 11-Jun-2009

 ---------------------------------
 #SP HF/6-31G* Geom=(ModRedundant)
 ---------------------------------

 ------------
 paramfit run
 ------------
 Symbolic Z-matrix:
 Charge =  0 Multiplicity = 1

                         Standard orientation:
 ---------------------------------------------------------------------
 Center     Atomic      Atomic             Coordinates (Angstroms)
 Number     Number       Type             X           Y           Z
 ---------------------------------------------------------------------
      1          6    20001001       -3.167051    2.119053   -1.825444
      2          7    20001014       -3.641436    1.259006   -0.761244
      3          6    20001002       -4.322986    0.128416   -1.060185
      4          8    20001024       -4.367595   -0.323656   -2.170764
      5          6    90000001       -4.933464   -0.636328    0.128036
      6          6    90000002       -6.026187   -1.583620   -0.378359
      7          6    90000002       -3.824030   -1.406643    0.894440
      8          6    90000002       -3.011285   -2.481834    0.150771
      9          6    90000002       -1.821083   -2.011547   -0.708815
     10          6    20001004       -0.791282   -1.210479    0.052815
     11          6    20001004        0.351934   -1.642149    0.560234
     12          6    90000002        1.509410   -2.264688   -0.183033
     13          6    90000002        2.696645   -1.313484   -0.418088
     14          6    90000002        3.315170   -0.803536    0.890458
     15          6    90000002        4.626517    0.019577    0.803834
     16          6    90000002        4.995829    0.456924    2.230644
     17          7    20001014        5.677553   -0.836950    0.271653
     18          6    20001002        6.907709   -0.340506   -0.049776
     19          6    20001001        7.748159   -1.238884   -0.928049
     20          8    20001024        7.299331    0.727075    0.332383
     21          6    20001002        4.408793    1.188873   -0.183113
     22          8    20001024        4.532394    1.014743   -1.365623
     23          7    20001014        3.980275    2.363128    0.328239
     24          6    20001001        3.805147    3.513867   -0.533929
     25          7    20001014       -5.483373    0.304250    1.115124
     26          6    20001002       -6.474605    1.198776    0.837716
     27          6    20001001       -7.139976    1.817406    2.049614
     28          8    20001024       -6.791017    1.486521   -0.281760
     29          1    20001035       -3.985535    2.574032   -2.371364
     30          1    20001035       -2.568816    1.545968   -2.518562
     31          1    20001035       -2.551676    2.897569   -1.392341
     32          1    20001029       -3.848970    1.685313    0.111383
     33          1    20001034       -5.639402   -2.265611   -1.120125
     34          1    20001034       -6.423926   -2.154676    0.455269
     35          1    20001034       -6.828333   -1.022698   -0.835367
     36          1    20001034       -4.328865   -1.901873    1.720944
     37          1    20001034       -3.148248   -0.683602    1.340323
     38          1    20001034       -2.619664   -3.151496    0.910905
     39          1    20001034       -3.669481   -3.081896   -0.468969
     40          1    20001034       -2.176703   -1.425494   -1.546335
     41          1    20001034       -1.364899   -2.897686   -1.136000
     42          1    20001033       -1.028442   -0.167360    0.186120
     43          1    20001033        0.488034   -1.540628    1.625566
     44          1    20001034        1.180440   -2.640371   -1.144338
     45          1    20001034        1.855389   -3.131405    0.378835
     46          1    20001034        3.434068   -1.845903   -1.012319
     47          1    20001034        2.371318   -0.478959   -1.025179
     48          1    20001034        3.522201   -1.647546    1.544920
     49          1    20001034        2.585059   -0.186688    1.401130
     50          1    20001034        5.227604   -0.425874    2.815048
     51          1    20001034        4.164755    0.958526    2.715509
     52          1    20001034        5.861042    1.102746    2.238434
     53          1    20001029        5.365383   -1.581460   -0.308835
     54          1    20001034        8.786726   -0.964185   -0.823253
     55          1    20001034        7.450744   -1.088750   -1.961553
     56          1    20001034        7.618115   -2.287337   -0.682659
     57          1    20001029        4.121576    2.537280    1.295200
     58          1    20001035        3.345420    4.308242    0.039257
     59          1    20001035        3.158812    3.255839   -1.359942
     60          1    20001035        4.750751    3.864235   -0.934962
     61          1    20001029       -5.387353    0.031566    2.067999
     62          1    20001034       -7.600068    2.750059    1.757302
     63          1    20001034       -6.439015    1.993093    2.857908
     64          1    20001034       -7.914250    1.148380    2.411147
 ---------------------------------------------------------------------

 SCF Done:  E(RHF) =  -1295.54451460     A.U. after   15 cycles

 The electronic state is 1-A.
 Alpha  occ. eigenvalues --  -20.53663 -20.52133 -20.51799 -20.51765 -15.59626
 Alpha  occ. eigenvalues --  -15.58119 -15.57611 -15.57487 -11.35984 -11.34333
 Alpha  occ. eigenvalues --  -11.33846 -11.33819 -11.29033 -11.28668 -11.25267
 Alpha  occ. eigenvalues --  -11.24842 -11.24384 -11.24004 -11.23407 -11.23000
 Alpha  occ. eigenvalues --  -11.22638 -11.22571 -11.22563 -11.22442 -11.22268
 Alpha  occ. eigenvalues --  -11.21925 -11.21723 -11.20886  -1.40596  -1.39493
 Alpha  occ. eigenvalues --   -1.38659  -1.38224  -1.25440  -1.23644  -1.22828
 Alpha  occ. eigenvalues --   -1.22042  -1.10734  -1.09355  -1.07239  -1.04372
 Alpha  occ. eigenvalues --   -1.01326  -0.99381  -0.98817  -0.95483  -0.95290
 Alpha  occ. eigenvalues --   -0.94730  -0.92117  -0.87275  -0.85713  -0.82864
 Alpha  occ. eigenvalues --   -0.81369  -0.79628  -0.78844  -0.77146  -0.77040
 Alpha  occ. eigenvalues --   -0.72060  -0.71352  -0.71169  -0.68990  -0.67993
 Alpha  occ. eigenvalues --   -0.65946  -0.65861  -0.64736  -0.64162  -0.63930
 Alpha  occ. eigenvalues --   -0.62557  -0.62214  -0.62073  -0.61571  -0.61223
 Alpha  occ. eigenvalues --   -0.61061  -0.59960  -0.59289  -0.58921  -0.58570
 Alpha  occ. eigenvalues --   -0.58119  -0.57618  -0.57081  -0.56540  -0.56206
 Alpha  occ. eigenvalues --   -0.55493  -0.54948  -0.54873  -0.54522  -0.54137
 Alpha  occ. eigenvalues --   -0.53282  -0.53007  -0.52619  -0.52308  -0.51719
 Alpha  occ. eigenvalues --   -0.51034  -0.50733  -0.49869  -0.48968  -0.48627
 Alpha  occ. eigenvalues --   -0.48324  -0.46953  -0.46540  -0.46191  -0.42887
 Alpha  occ. eigenvalues --   -0.41927  -0.41623  -0.41151  -0.39274  -0.38997
 Alpha  occ. eigenvalues --   -0.38446  -0.38271  -0.28559
 Alpha virt. eigenvalues --    0.12179   0.18779   0.19523   0.19940   0.20165
 Alpha virt. eigenvalues --    0.21344   0.21580   0.23072   0.23412   0.24363
 Alpha virt. eigenvalues --    0.25396   0.25773   0.26437   0.26864   0.27593

 Mulliken atomic charges:
              1
     1  C   -0.280050
     2  N   -0.783255
     3  C    0.822518
     4  O   -0.627630
     5  C    0.102324
     6  C   -0.473129
     7  C   -0.334645
     8  C   -0.308953
     9  C   -0.357201
    10  C   -0.190485
    11  C   -0.192168
    12  C   -0.336974
    13  C   -0.308123
    14  C   -0.326998
    15  C    0.089820
    16  C   -0.509293
    17  N   -0.787256
    18  C    0.767183
    19  C   -0.595776
    20  O   -0.614226
    21  C    0.820477
    22  O   -0.638843
    23  N   -0.806848
    24  C   -0.275221
    25  N   -0.842985
    26  C    0.744552
    27  C   -0.588635
    28  O   -0.591505
    29  H    0.186935
    30  H    0.199041
    31  H    0.162189
    32  H    0.390899
    33  H    0.198399
    34  H    0.143875
    35  H    0.212822
    36  H    0.160592
    37  H    0.182963
    38  H    0.164060
    39  H    0.184850
    40  H    0.201234
    41  H    0.167983
    42  H    0.189865
    43  H    0.175353
    44  H    0.176656
    45  H    0.145668
    46  H    0.157410
    47  H    0.196833
    48  H    0.174059
    49  H    0.183497
    50  H    0.184281
    51  H    0.147148
    52  H    0.226491
    53  H    0.389948
    54  H    0.211246
    55  H    0.209641
    56  H    0.176962
    57  H    0.395295
    58  H    0.163484
    59  H    0.198277
    60  H    0.186192
    61  H    0.382246
    62  H    0.218741
    63  H    0.176887
    64  H    0.201304
 Sum of Mulliken atomic charges =   0.00000

 Dipole moment (field-independent basis, Debye):
    X=             -1.5135    Y=             -0.8619    Z=              7.4350  Tot=              7.6363
 Quadrupole moment (field-independent basis, Debye-Ang):
   XX=           -204.0120   YY=           -157.3920   ZZ=           -173.8223
   XY=            -12.6799   XZ=            -30.3289   YZ=              5.6789

 Normal termination of Gaussian 09 at Thu Dec  5 18:04:36 2019.
