 Gaussian 09, Revision A.02,
 Gaussian 09:  EM64L-G09RevA.02 11-Jun-2009

 ---------------------------------
 #SP HF/6-31G* Geom=(ModRedundant)
 ---------------------------------

 ------------
 paramfit run
 ------------
 Symbolic Z-matrix:
 Charge =  0 Multiplicity = 1

                         Standard orientation:
 ---------------------------------------------------------------------
 Center     Atomic      Atomic             Coordinates (Angstroms)
 Number     Number       Type             X           Y           Z
 ---------------------------------------------------------------------
      1          6    20001001        3.416171    0.231875    2.983021
      2          7    20001014        3.580683    0.325982    1.547289
      3          6    20001002        4.400976   -0.537261    0.903830
      4          8    20001024        4.834590   -1.526571    1.426315
      5          6    90000001        4.646980   -0.261735   -0.590477
      6          6    90000002        5.909297   -1.000393   -1.047406
      7          6    90000002        3.407081   -0.686675   -1.423351
      8          6    90000002        2.957417   -2.158637   -1.395661
      9          6    90000002        2.079064   -2.616019   -0.214164
     10          6    20001004        0.803947   -1.822125   -0.052650
     11          6    20001004       -0.408146   -2.149878   -0.469980
     12          6    90000002       -1.594841   -2.544852    0.375895
     13          6    90000002       -2.641542   -1.431031    0.558612
     14          6    90000002       -3.257381   -0.973117   -0.770285
     15          6    90000002       -4.450462    0.016032   -0.717463
     16          6    90000002       -4.834311    0.358996   -2.166078
     17          7    20001014       -5.571359   -0.643727   -0.061842
     18          6    20001002       -6.712627    0.034944    0.254337
     19          6    20001001       -7.612537   -0.660135    1.250245
     20          8    20001024       -6.987640    1.102587   -0.218580
     21          6    20001002       -4.039818    1.236504    0.137255
     22          8    20001024       -4.124146    1.193340    1.335151
     23          7    20001014       -3.495378    2.291814   -0.506085
     24          6    20001001       -3.135553    3.487528    0.228079
     25          7    20001014        4.779479    1.182649   -0.830537
     26          6    20001002        5.740790    1.960361   -0.255456
     27          6    20001001        5.932416    3.321392   -0.891847
     28          8    20001024        6.381054    1.601897    0.692017
     29          1    20001035        4.332667    0.470273    3.510420
     30          1    20001035        3.116791   -0.770729    3.251126
     31          1    20001035        2.639977    0.922429    3.288001
     32          1    20001029        3.463796    1.220744    1.132531
     33          1    20001034        5.832921   -2.059951   -0.856526
     34          1    20001034        6.055515   -0.841427   -2.111637
     35          1    20001034        6.774066   -0.632805   -0.514508
     36          1    20001034        3.651253   -0.446112   -2.455692
     37          1    20001034        2.573708   -0.046687   -1.150981
     38          1    20001034        2.389654   -2.323680   -2.306717
     39          1    20001034        3.821692   -2.811812   -1.457008
     40          1    20001034        2.643851   -2.569906    0.707928
     41          1    20001034        1.849962   -3.663997   -0.372561
     42          1    20001033        0.910302   -0.884566    0.468681
     43          1    20001033       -0.584264   -2.133860   -1.534164
     44          1    20001034       -1.266846   -2.866191    1.357030
     45          1    20001034       -2.073580   -3.409605   -0.081930
     46          1    20001034       -3.408322   -1.805200    1.231233
     47          1    20001034       -2.184976   -0.591086    1.065436
     48          1    20001034       -3.600286   -1.842132   -1.327745
     49          1    20001034       -2.483154   -0.506692   -1.368090
     50          1    20001034       -5.203009   -0.538447   -2.649028
     51          1    20001034       -3.973019    0.701159   -2.730421
     52          1    20001034       -5.612035    1.106845   -2.206174
     53          1    20001029       -5.324997   -1.363330    0.578618
     54          1    20001034       -8.612978   -0.265630    1.157812
     55          1    20001034       -7.246957   -0.451488    2.251215
     56          1    20001034       -7.626086   -1.735200    1.107302
     57          1    20001029       -3.662672    2.389583   -1.479617
     58          1    20001035       -2.610418    4.157942   -0.439528
     59          1    20001035       -2.485297    3.228667    1.050749
     60          1    20001035       -4.008925    3.993067    0.627335
     61          1    20001029        4.399992    1.511618   -1.690372
     62          1    20001034        6.394690    3.981322   -0.172286
     63          1    20001034        4.997003    3.750389   -1.233190
     64          1    20001034        6.593630    3.224796   -1.746989
 ---------------------------------------------------------------------

 SCF Done:  E(RHF) =  -1295.51054488     A.U. after   16 cycles

 The electronic state is 1-A.
 Alpha  occ. eigenvalues --  -20.53661 -20.52225 -20.51942 -20.51863 -15.59631
 Alpha  occ. eigenvalues --  -15.58342 -15.57685 -15.57486 -11.35983 -11.34424
 Alpha  occ. eigenvalues --  -11.34022 -11.33870 -11.29049 -11.28795 -11.25564
 Alpha  occ. eigenvalues --  -11.24766 -11.24381 -11.24065 -11.23592 -11.22782
 Alpha  occ. eigenvalues --  -11.22648 -11.22445 -11.22179 -11.22155 -11.22048
 Alpha  occ. eigenvalues --  -11.22016 -11.21943 -11.20868  -1.40597  -1.39627
 Alpha  occ. eigenvalues --   -1.38721  -1.38360  -1.25450  -1.23734  -1.23045
 Alpha  occ. eigenvalues --   -1.22037  -1.10640  -1.09371  -1.07244  -1.04449
 Alpha  occ. eigenvalues --   -1.01274  -0.99399  -0.98871  -0.95546  -0.95437
 Alpha  occ. eigenvalues --   -0.94940  -0.91970  -0.87337  -0.85675  -0.82894
 Alpha  occ. eigenvalues --   -0.81281  -0.79765  -0.78765  -0.77199  -0.77150
 Alpha  occ. eigenvalues --   -0.72713  -0.71635  -0.71214  -0.69067  -0.68064
 Alpha  occ. eigenvalues --   -0.65967  -0.65349  -0.64754  -0.64259  -0.63909
 Alpha  occ. eigenvalues --   -0.62561  -0.62518  -0.61928  -0.61695  -0.61188
 Alpha  occ. eigenvalues --   -0.60953  -0.60026  -0.59179  -0.59162  -0.58797
 Alpha  occ. eigenvalues --   -0.58137  -0.57678  -0.57014  -0.56660  -0.56245
 Alpha  occ. eigenvalues --   -0.55532  -0.55075  -0.54564  -0.54495  -0.54304
 Alpha  occ. eigenvalues --   -0.53673  -0.52775  -0.52754  -0.52269  -0.52069
 Alpha  occ. eigenvalues --   -0.51044  -0.50912  -0.49996  -0.49376  -0.48480
 Alpha  occ. eigenvalues --   -0.48105  -0.47430  -0.46841  -0.46026  -0.42885
 Alpha  occ. eigenvalues --   -0.41948  -0.41771  -0.41253  -0.39295  -0.39158
 Alpha  occ. eigenvalues --   -0.38622  -0.38282  -0.26460
 Alpha virt. eigenvalues --    0.09834   0.18780   0.19408   0.19956   0.20123
 Alpha virt. eigenvalues --    0.21293   0.21407   0.22927   0.23702   0.24175
 Alpha virt. eigenvalues --    0.25482   0.25996   0.26313   0.26802   0.27539

 Mulliken atomic charges:
              1
     1  C   -0.279670
     2  N   -0.782289
     3  C    0.821480
     4  O   -0.629693
     5  C    0.102611
     6  C   -0.472134
     7  C   -0.332082
     8  C   -0.317105
     9  C   -0.343878
    10  C   -0.205855
    11  C   -0.207950
    12  C   -0.325965
    13  C   -0.315014
    14  C   -0.326849
    15  C    0.092215
    16  C   -0.509397
    17  N   -0.787475
    18  C    0.767023
    19  C   -0.595646
    20  O   -0.614658
    21  C    0.819735
    22  O   -0.638299
    23  N   -0.807417
    24  C   -0.274580
    25  N   -0.842915
    26  C    0.744770
    27  C   -0.588631
    28  O   -0.591448
    29  H    0.186235
    30  H    0.198002
    31  H    0.164809
    32  H    0.391175
    33  H    0.198886
    34  H    0.143874
    35  H    0.212327
    36  H    0.160705
    37  H    0.176527
    38  H    0.162429
    39  H    0.173682
    40  H    0.222498
    41  H    0.179642
    42  H    0.183565
    43  H    0.169135
    44  H    0.186122
    45  H    0.173708
    46  H    0.145417
    47  H    0.193119
    48  H    0.174736
    49  H    0.177387
    50  H    0.185009
    51  H    0.146450
    52  H    0.226530
    53  H    0.390856
    54  H    0.211279
    55  H    0.209439
    56  H    0.177220
    57  H    0.395519
    58  H    0.162547
    59  H    0.196236
    60  H    0.187085
    61  H    0.382043
    62  H    0.219006
    63  H    0.176724
    64  H    0.201192
 Sum of Mulliken atomic charges =   0.00000

 Dipole moment (field-independent basis, Debye):
    X=             -0.6529    Y=              1.6899    Z=             -5.3457  Tot=              5.6443
 Quadrupole moment (field-independent basis, Debye-Ang):
   XX=           -218.7406   YY=           -161.0916   ZZ=           -167.6225
   XY=             32.8578   XZ=            -21.5184   YZ=             -5.9820

 Normal termination of Gaussian 09 at Thu Dec  5 18:36:43 2019.
