 Gaussian 09, Revision A.02,
 Gaussian 09:  EM64L-G09RevA.02 11-Jun-2009

 ---------------------------------
 #SP HF/6-31G* Geom=(ModRedundant)
 ---------------------------------

 ------------
 paramfit run
 ------------
 Symbolic Z-matrix:
 Charge =  0 Multiplicity = 1

                         Standard orientation:
 ---------------------------------------------------------------------
 Center     Atomic      Atomic             Coordinates (Angstroms)
 Number     Number       Type             X           Y           Z
 ---------------------------------------------------------------------
      1          6    20001001       -4.702617   -2.063060   -2.131568
      2          7    20001014       -4.169795   -0.974342   -1.339079
      3          6    20001002       -4.546372   -0.832908   -0.046680
      4          8    20001024       -5.130967   -1.692263    0.552907
      5          6    90000001       -4.065544    0.441656    0.670032
      6          6    90000002       -4.924813    0.685382    1.915060
      7          6    90000002       -2.561147    0.314869    1.033789
      8          6    90000002       -2.112710   -0.819666    1.972601
      9          6    90000002       -1.881022   -2.211820    1.352225
     10          6    20001004       -0.872734   -2.223473    0.227283
     11          6    20001004        0.405549   -2.558624    0.293801
     12          6    90000002        1.411631   -2.569540   -0.832003
     13          6    90000002        2.373976   -1.368102   -0.833475
     14          6    90000002        3.228159   -1.291799    0.439107
     15          6    90000002        4.362646   -0.235985    0.492442
     16          6    90000002        5.015893   -0.325476    1.881223
     17          7    20001014        5.348273   -0.562121   -0.529177
     18          6    20001002        6.387737    0.276472   -0.810840
     19          6    20001001        7.090583    0.002968   -2.120804
     20          8    20001024        6.724130    1.165371   -0.078829
     21          6    20001002        3.761608    1.148736    0.160741
     22          8    20001024        3.609226    1.485022   -0.982772
     23          7    20001014        3.328770    1.902891    1.194124
     24          6    20001001        2.801909    3.231299    0.957584
     25          7    20001014       -4.133136    1.596562   -0.237192
     26          6    20001002       -5.286174    2.037016   -0.816999
     27          6    20001001       -5.213808    3.425232   -1.418446
     28          8    20001024       -6.282619    1.372681   -0.860556
     29          1    20001035       -5.769317   -1.959294   -2.293847
     30          1    20001035       -4.521575   -3.002329   -1.629851
     31          1    20001035       -4.196313   -2.074008   -3.088589
     32          1    20001029       -3.910471   -0.144821   -1.819631
     33          1    20001034       -4.900547   -0.164916    2.579392
     34          1    20001034       -4.555217    1.559024    2.443630
     35          1    20001034       -5.954481    0.853066    1.634715
     36          1    20001034       -2.296466    1.253023    1.516521
     37          1    20001034       -1.986822    0.273815    0.113601
     38          1    20001034       -1.173681   -0.499627    2.414663
     39          1    20001034       -2.813792   -0.919912    2.794677
     40          1    20001034       -2.817313   -2.618405    0.992488
     41          1    20001034       -1.557209   -2.868707    2.151899
     42          1    20001033       -1.255996   -1.925633   -0.735273
     43          1    20001033        0.787504   -2.856946    1.257583
     44          1    20001034        0.904727   -2.599129   -1.788893
     45          1    20001034        1.992404   -3.488895   -0.768110
     46          1    20001034        3.002144   -1.448907   -1.716226
     47          1    20001034        1.805889   -0.455210   -0.954860
     48          1    20001034        3.695548   -2.257634    0.618670
     49          1    20001034        2.575671   -1.101142    1.283062
     50          1    20001034        5.494575   -1.293011    1.977752
     51          1    20001034        4.274546   -0.249675    2.669918
     52          1    20001034        5.767567    0.437375    2.018275
     53          1    20001029        4.998349   -1.067147   -1.310980
     54          1    20001034        8.079572    0.434103   -2.087863
     55          1    20001034        6.529856    0.478294   -2.920039
     56          1    20001034        7.158565   -1.058346   -2.333815
     57          1    20001029        3.682193    1.709243    2.101264
     58          1    20001035        2.402273    3.615036    1.887078
     59          1    20001035        2.008858    3.184258    0.225817
     60          1    20001035        3.566714    3.908526    0.591259
     61          1    20001029       -3.406180    2.268796   -0.131438
     62          1    20001034       -5.991506    3.524761   -2.161582
     63          1    20001034       -4.248903    3.627369   -1.869722
     64          1    20001034       -5.384617    4.160534   -0.638730
 ---------------------------------------------------------------------

 SCF Done:  E(RHF) =  -1295.62403203     A.U. after   14 cycles

 The electronic state is 1-A.
 Alpha  occ. eigenvalues --  -20.53593 -20.52382 -20.52164 -20.51843 -15.59559
 Alpha  occ. eigenvalues --  -15.58526 -15.57861 -15.57495 -11.35908 -11.34582
 Alpha  occ. eigenvalues --  -11.34227 -11.33850 -11.29022 -11.28949 -11.25802
 Alpha  occ. eigenvalues --  -11.24844 -11.24265 -11.24012 -11.23723 -11.22808
 Alpha  occ. eigenvalues --  -11.22801 -11.22756 -11.22666 -11.22273 -11.22131
 Alpha  occ. eigenvalues --  -11.22073 -11.21800 -11.20875  -1.40534  -1.39819
 Alpha  occ. eigenvalues --   -1.38698  -1.38548  -1.25391  -1.23908  -1.23235
 Alpha  occ. eigenvalues --   -1.22042  -1.10769  -1.09474  -1.07312  -1.04569
 Alpha  occ. eigenvalues --   -1.01307  -0.99450  -0.98976  -0.95717  -0.95481
 Alpha  occ. eigenvalues --   -0.95070  -0.91931  -0.87416  -0.85641  -0.82970
 Alpha  occ. eigenvalues --   -0.81166  -0.79946  -0.78645  -0.77380  -0.77145
 Alpha  occ. eigenvalues --   -0.73881  -0.71875  -0.71166  -0.69051  -0.68207
 Alpha  occ. eigenvalues --   -0.65926  -0.65526  -0.64850  -0.64330  -0.63683
 Alpha  occ. eigenvalues --   -0.62615  -0.62443  -0.61977  -0.61848  -0.61204
 Alpha  occ. eigenvalues --   -0.60877  -0.60155  -0.59288  -0.59213  -0.58974
 Alpha  occ. eigenvalues --   -0.58154  -0.57888  -0.56767  -0.56601  -0.56427
 Alpha  occ. eigenvalues --   -0.55771  -0.55245  -0.54922  -0.54548  -0.54221
 Alpha  occ. eigenvalues --   -0.53554  -0.52889  -0.52547  -0.52351  -0.51674
 Alpha  occ. eigenvalues --   -0.51017  -0.50743  -0.50163  -0.49417  -0.48699
 Alpha  occ. eigenvalues --   -0.48397  -0.47032  -0.46452  -0.45111  -0.42837
 Alpha  occ. eigenvalues --   -0.41971  -0.41913  -0.41411  -0.39348  -0.39259
 Alpha  occ. eigenvalues --   -0.38816  -0.38290  -0.34543
 Alpha virt. eigenvalues --    0.17408   0.18858   0.19235   0.20024   0.20134
 Alpha virt. eigenvalues --    0.21184   0.21530   0.22800   0.23550   0.24065
 Alpha virt. eigenvalues --    0.25165   0.25595   0.26128   0.26883   0.27238

 Mulliken atomic charges:
              1
     1  C   -0.279819
     2  N   -0.783160
     3  C    0.821697
     4  O   -0.629023
     5  C    0.102384
     6  C   -0.472651
     7  C   -0.334954
     8  C   -0.310347
     9  C   -0.365320
    10  C   -0.177446
    11  C   -0.173287
    12  C   -0.346414
    13  C   -0.309233
    14  C   -0.329153
    15  C    0.090471
    16  C   -0.509865
    17  N   -0.787043
    18  C    0.767058
    19  C   -0.595748
    20  O   -0.614166
    21  C    0.820229
    22  O   -0.640375
    23  N   -0.806751
    24  C   -0.273979
    25  N   -0.842739
    26  C    0.744481
    27  C   -0.588962
    28  O   -0.592094
    29  H    0.186860
    30  H    0.197797
    31  H    0.163305
    32  H    0.392172
    33  H    0.198078
    34  H    0.143718
    35  H    0.212774
    36  H    0.160776
    37  H    0.184070
    38  H    0.161909
    39  H    0.178993
    40  H    0.212156
    41  H    0.171290
    42  H    0.176155
    43  H    0.165099
    44  H    0.175772
    45  H    0.162311
    46  H    0.151348
    47  H    0.191018
    48  H    0.176307
    49  H    0.183323
    50  H    0.185767
    51  H    0.148211
    52  H    0.226631
    53  H    0.390227
    54  H    0.211817
    55  H    0.208525
    56  H    0.177624
    57  H    0.396783
    58  H    0.164261
    59  H    0.192492
    60  H    0.187293
    61  H    0.383070
    62  H    0.218697
    63  H    0.178699
    64  H    0.200876
 Sum of Mulliken atomic charges =   0.00000

 Dipole moment (field-independent basis, Debye):
    X=              2.4613    Y=              1.7411    Z=             -0.1729  Tot=              3.0198
 Quadrupole moment (field-independent basis, Debye-Ang):
   XX=           -228.7045   YY=           -164.5150   ZZ=           -158.6205
   XY=            -33.2399   XZ=              5.8407   YZ=              9.0265

 Normal termination of Gaussian 09 at Thu Dec  5 17:07:43 2019.
