 Gaussian 09, Revision A.02,
 Gaussian 09:  EM64L-G09RevA.02 11-Jun-2009

 ---------------------------------
 #SP HF/6-31G* Geom=(ModRedundant)
 ---------------------------------

 ------------
 paramfit run
 ------------
 Symbolic Z-matrix:
 Charge =  0 Multiplicity = 1

                         Standard orientation:
 ---------------------------------------------------------------------
 Center     Atomic      Atomic             Coordinates (Angstroms)
 Number     Number       Type             X           Y           Z
 ---------------------------------------------------------------------
      1          6    20001001       -4.630703    2.219343    2.052832
      2          7    20001014       -4.552596    0.986685    1.296724
      3          6    20001002       -4.391917    1.027836   -0.046629
      4          8    20001024       -4.085964    2.031002   -0.629549
      5          6    90000001       -4.487109   -0.317696   -0.788161
      6          6    90000002       -4.751079   -0.065851   -2.276360
      7          6    90000002       -3.187251   -1.139628   -0.572752
      8          6    90000002       -1.846154   -0.555733   -1.052501
      9          6    90000002       -1.132674    0.450659   -0.127969
     10          6    20001004       -0.845894   -0.082492    1.256150
     11          6    20001004        0.291896   -0.585901    1.706448
     12          6    90000002        1.141472   -1.655065    1.062348
     13          6    90000002        2.391082   -1.121246    0.339104
     14          6    90000002        3.353658   -0.387877    1.282783
     15          6    90000002        4.733453    0.045132    0.723038
     16          6    90000002        5.469736    0.805039    1.838331
     17          7    20001014        5.487328   -1.150484    0.371320
     18          6    20001002        6.683978   -1.072986   -0.280662
     19          6    20001001        7.153513   -2.365938   -0.907252
     20          8    20001024        7.320798   -0.059024   -0.354718
     21          6    20001002        4.505123    0.869585   -0.564156
     22          8    20001024        4.339621    0.315320   -1.617402
     23          7    20001014        4.398506    2.209618   -0.434054
     24          6    20001001        4.235031    3.045731   -1.605546
     25          7    20001014       -5.552998   -1.148163   -0.208821
     26          6    20001002       -6.864048   -0.775352   -0.166001
     27          6    20001001       -7.840735   -1.893017    0.135702
     28          8    20001024       -7.220726    0.355186   -0.341513
     29          1    20001035       -5.522347    2.785745    1.809708
     30          1    20001035       -3.766649    2.832244    1.841911
     31          1    20001035       -4.639272    1.977536    3.108203
     32          1    20001029       -5.028629    0.195901    1.663246
     33          1    20001034       -3.986115    0.561083   -2.708466
     34          1    20001034       -4.772718   -1.014229   -2.804893
     35          1    20001034       -5.699254    0.433900   -2.411049
     36          1    20001034       -3.339350   -2.073968   -1.108564
     37          1    20001034       -3.115089   -1.400285    0.478500
     38          1    20001034       -1.176812   -1.399277   -1.194037
     39          1    20001034       -1.968059   -0.100787   -2.030017
     40          1    20001034       -1.718132    1.357035   -0.043799
     41          1    20001034       -0.208431    0.735952   -0.618089
     42          1    20001033       -1.673116   -0.036530    1.945864
     43          1    20001033        0.669878   -0.194292    2.637863
     44          1    20001034        0.554824   -2.223502    0.350879
     45          1    20001034        1.451662   -2.360827    1.831942
     46          1    20001034        2.883692   -1.965051   -0.135978
     47          1    20001034        2.085639   -0.463896   -0.464280
     48          1    20001034        3.553941   -1.012280    2.150850
     49          1    20001034        2.864065    0.506389    1.650121
     50          1    20001034        5.672243    0.117526    2.651287
     51          1    20001034        4.858272    1.608048    2.236663
     52          1    20001034        6.411220    1.205638    1.493561
     53          1    20001029        4.937809   -1.945638    0.137930
     54          1    20001034        8.221052   -2.317658   -1.059212
     55          1    20001034        6.669035   -2.478482   -1.872518
     56          1    20001034        6.907125   -3.228281   -0.297303
     57          1    20001029        4.772314    2.636706    0.380301
     58          1    20001035        4.048598    4.061312   -1.281881
     59          1    20001035        3.391825    2.700323   -2.185478
     60          1    20001035        5.116424    3.028911   -2.238489
     61          1    20001029       -5.370241   -2.126739   -0.185671
     62          1    20001034       -8.752129   -1.464320    0.526283
     63          1    20001034       -7.439823   -2.608250    0.845112
     64          1    20001034       -8.073235   -2.420679   -0.783709
 ---------------------------------------------------------------------

 SCF Done:  E(RHF) =  -1295.56367066     A.U. after   14 cycles

 The electronic state is 1-A.
 Alpha  occ. eigenvalues --  -20.53627 -20.52080 -20.51858 -20.51648 -15.59584
 Alpha  occ. eigenvalues --  -15.57935 -15.57549 -15.57524 -11.35945 -11.34290
 Alpha  occ. eigenvalues --  -11.33864 -11.33727 -11.29003 -11.28598 -11.25007
 Alpha  occ. eigenvalues --  -11.24880 -11.24336 -11.23991 -11.23463 -11.22769
 Alpha  occ. eigenvalues --  -11.22569 -11.22408 -11.22233 -11.22114 -11.21931
 Alpha  occ. eigenvalues --  -11.21804 -11.21709 -11.20801  -1.40565  -1.39409
 Alpha  occ. eigenvalues --   -1.38715  -1.38136  -1.25411  -1.23578  -1.22648
 Alpha  occ. eigenvalues --   -1.22068  -1.10723  -1.09245  -1.07161  -1.04234
 Alpha  occ. eigenvalues --   -1.01217  -0.99323  -0.98762  -0.95499  -0.95249
 Alpha  occ. eigenvalues --   -0.94635  -0.92112  -0.87300  -0.85597  -0.82830
 Alpha  occ. eigenvalues --   -0.81211  -0.79526  -0.78636  -0.77170  -0.76907
 Alpha  occ. eigenvalues --   -0.72359  -0.71417  -0.71171  -0.68956  -0.67940
 Alpha  occ. eigenvalues --   -0.66448  -0.65740  -0.64518  -0.63906  -0.63669
 Alpha  occ. eigenvalues --   -0.62602  -0.62419  -0.61715  -0.61430  -0.61073
 Alpha  occ. eigenvalues --   -0.60870  -0.59934  -0.59340  -0.58672  -0.58487
 Alpha  occ. eigenvalues --   -0.58231  -0.57569  -0.56784  -0.56523  -0.56132
 Alpha  occ. eigenvalues --   -0.55274  -0.54844  -0.54668  -0.54571  -0.54286
 Alpha  occ. eigenvalues --   -0.53311  -0.52751  -0.52657  -0.52059  -0.51946
 Alpha  occ. eigenvalues --   -0.51011  -0.50627  -0.49777  -0.49357  -0.48859
 Alpha  occ. eigenvalues --   -0.48071  -0.47194  -0.46421  -0.45680  -0.42846
 Alpha  occ. eigenvalues --   -0.41907  -0.41548  -0.41099  -0.39272  -0.38877
 Alpha  occ. eigenvalues --   -0.38321  -0.38313  -0.29727
 Alpha virt. eigenvalues --    0.12795   0.18817   0.19630   0.20043   0.20168
 Alpha virt. eigenvalues --    0.21543   0.21719   0.23026   0.23671   0.23755
 Alpha virt. eigenvalues --    0.25446   0.25754   0.26115   0.26807   0.27603

 Mulliken atomic charges:
              1
     1  C   -0.279233
     2  N   -0.782883
     3  C    0.821622
     4  O   -0.629231
     5  C    0.102499
     6  C   -0.472340
     7  C   -0.333668
     8  C   -0.317323
     9  C   -0.361284
    10  C   -0.194408
    11  C   -0.192774
    12  C   -0.341465
    13  C   -0.315510
    14  C   -0.328847
    15  C    0.091905
    16  C   -0.509855
    17  N   -0.787569
    18  C    0.767327
    19  C   -0.595624
    20  O   -0.613707
    21  C    0.819862
    22  O   -0.640183
    23  N   -0.805842
    24  C   -0.275484
    25  N   -0.842987
    26  C    0.744649
    27  C   -0.588697
    28  O   -0.591875
    29  H    0.186643
    30  H    0.197691
    31  H    0.162852
    32  H    0.391447
    33  H    0.199371
    34  H    0.144428
    35  H    0.212098
    36  H    0.161417
    37  H    0.178567
    38  H    0.164338
    39  H    0.177106
    40  H    0.218951
    41  H    0.180953
    42  H    0.183901
    43  H    0.175821
    44  H    0.176955
    45  H    0.169560
    46  H    0.145835
    47  H    0.196713
    48  H    0.173753
    49  H    0.183347
    50  H    0.183724
    51  H    0.149297
    52  H    0.226688
    53  H    0.389683
    54  H    0.211319
    55  H    0.208981
    56  H    0.176153
    57  H    0.395981
    58  H    0.166427
    59  H    0.198131
    60  H    0.185033
    61  H    0.382569
    62  H    0.218574
    63  H    0.177198
    64  H    0.201421
 Sum of Mulliken atomic charges =   0.00000

 Dipole moment (field-independent basis, Debye):
    X=             -2.0502    Y=             -5.7229    Z=              4.1565  Tot=              7.3641
 Quadrupole moment (field-independent basis, Debye-Ang):
   XX=           -198.2975   YY=           -156.5605   ZZ=           -170.6821
   XY=             26.6333   XZ=             -0.8073   YZ=              6.9918

 Normal termination of Gaussian 09 at Thu Dec  5 17:14:04 2019.
