 Gaussian 09, Revision A.02,
 Gaussian 09:  EM64L-G09RevA.02 11-Jun-2009

 ---------------------------------
 #SP HF/6-31G* Geom=(ModRedundant)
 ---------------------------------

 ------------
 paramfit run
 ------------
 Symbolic Z-matrix:
 Charge =  0 Multiplicity = 1

                         Standard orientation:
 ---------------------------------------------------------------------
 Center     Atomic      Atomic             Coordinates (Angstroms)
 Number     Number       Type             X           Y           Z
 ---------------------------------------------------------------------
      1          6    20001001        3.304544    0.642779    2.871875
      2          7    20001014        3.557455    0.540361    1.449626
      3          6    20001002        4.379941   -0.425723    0.978130
      4          8    20001024        4.742653   -1.349944    1.651926
      5          6    90000001        4.724731   -0.358722   -0.520541
      6          6    90000002        5.981953   -1.190372   -0.795486
      7          6    90000002        3.520672   -0.851674   -1.368387
      8          6    90000002        3.012733   -2.292243   -1.177612
      9          6    90000002        2.048604   -2.561254   -0.005125
     10          6    20001004        0.798297   -1.713689   -0.030487
     11          6    20001004       -0.398849   -2.056079   -0.478110
     12          6    90000002       -1.591096   -2.499202    0.335489
     13          6    90000002       -2.665074   -1.413516    0.528936
     14          6    90000002       -3.267637   -0.933262   -0.798162
     15          6    90000002       -4.482934    0.028180   -0.740491
     16          6    90000002       -4.848987    0.401779   -2.186134
     17          7    20001014       -5.600273   -0.673017   -0.122911
     18          6    20001002       -6.761526   -0.027858    0.190651
     19          6    20001001       -7.663105   -0.768784    1.151374
     20          8    20001024       -7.051701    1.045990   -0.258558
     21          6    20001002       -4.114174    1.233694    0.153642
     22          8    20001024       -4.218351    1.156404    1.348256
     23          7    20001014       -3.581982    2.317465   -0.451499
     24          6    20001001       -3.261379    3.500395    0.320569
     25          7    20001014        4.927816    1.036205   -0.938112
     26          6    20001002        5.883121    1.853087   -0.409183
     27          6    20001001        6.165410    3.111005   -1.204215
     28          8    20001024        6.451522    1.603798    0.615959
     29          1    20001035        4.196809    0.920446    3.421160
     30          1    20001035        2.950677   -0.305581    3.248858
     31          1    20001035        2.539336    1.391494    3.033848
     32          1    20001029        3.500571    1.375365    0.915007
     33          1    20001034        5.852869   -2.212336   -0.473215
     34          1    20001034        6.197136   -1.178667   -1.859815
     35          1    20001034        6.827366   -0.782382   -0.260932
     36          1    20001034        3.834873   -0.757947   -2.405553
     37          1    20001034        2.698378   -0.155602   -1.235735
     38          1    20001034        2.493945   -2.558997   -2.093755
     39          1    20001034        3.852823   -2.974336   -1.097785
     40          1    20001034        2.559102   -2.410763    0.937269
     41          1    20001034        1.788343   -3.613348   -0.039699
     42          1    20001033        0.910270   -0.719002    0.369730
     43          1    20001033       -0.556744   -2.015137   -1.544485
     44          1    20001034       -1.273221   -2.839772    1.313463
     45          1    20001034       -2.042656   -3.361390   -0.153715
     46          1    20001034       -3.435016   -1.822128    1.177472
     47          1    20001034       -2.235984   -0.577922    1.066054
     48          1    20001034       -3.581589   -1.794096   -1.384621
     49          1    20001034       -2.493583   -0.434309   -1.369331
     50          1    20001034       -5.189391   -0.490031   -2.699340
     51          1    20001034       -3.985750    0.777517   -2.725599
     52          1    20001034       -5.642164    1.133518   -2.220288
     53          1    20001029       -5.349311   -1.404176    0.502498
     54          1    20001034       -8.670227   -0.393560    1.051504
     55          1    20001034       -7.319667   -0.579410    2.163951
     56          1    20001034       -7.650505   -1.839642    0.979656
     57          1    20001029       -3.734432    2.437853   -1.424934
     58          1    20001035       -2.739593    4.199738   -0.319415
     59          1    20001035       -2.619991    3.233484    1.147615
     60          1    20001035       -4.152475    3.976050    0.717373
     61          1    20001029        4.613178    1.259796   -1.856022
     62          1    20001034        6.609753    3.845894   -0.548875
     63          1    20001034        5.269439    3.519783   -1.657742
     64          1    20001034        6.871859    2.881268   -1.995387
 ---------------------------------------------------------------------

 SCF Done:  E(RHF) =  -1295.47762385     A.U. after   16 cycles

 The electronic state is 1-A.
 Alpha  occ. eigenvalues --  -20.53665 -20.52188 -20.51886 -20.51867 -15.59634
 Alpha  occ. eigenvalues --  -15.58287 -15.57643 -15.57488 -11.35986 -11.34387
 Alpha  occ. eigenvalues --  -11.33968 -11.33872 -11.29047 -11.28753 -11.25496
 Alpha  occ. eigenvalues --  -11.24761 -11.24386 -11.24066 -11.23553 -11.22831
 Alpha  occ. eigenvalues --  -11.22615 -11.22406 -11.22216 -11.22071 -11.22043
 Alpha  occ. eigenvalues --  -11.22016 -11.22009 -11.20864  -1.40601  -1.39580
 Alpha  occ. eigenvalues --   -1.38724  -1.38314  -1.25452  -1.23692  -1.22989
 Alpha  occ. eigenvalues --   -1.22038  -1.10638  -1.09345  -1.07242  -1.04425
 Alpha  occ. eigenvalues --   -1.01272  -0.99388  -0.98846  -0.95505  -0.95432
 Alpha  occ. eigenvalues --   -0.94904  -0.91997  -0.87322  -0.85684  -0.82874
 Alpha  occ. eigenvalues --   -0.81301  -0.79719  -0.78785  -0.77153  -0.77150
 Alpha  occ. eigenvalues --   -0.72543  -0.71569  -0.71214  -0.69057  -0.68031
 Alpha  occ. eigenvalues --   -0.65957  -0.65325  -0.64759  -0.64246  -0.63941
 Alpha  occ. eigenvalues --   -0.62548  -0.62476  -0.61941  -0.61654  -0.61169
 Alpha  occ. eigenvalues --   -0.60993  -0.60008  -0.59180  -0.59120  -0.58741
 Alpha  occ. eigenvalues --   -0.58135  -0.57601  -0.57087  -0.56647  -0.56217
 Alpha  occ. eigenvalues --   -0.55487  -0.55033  -0.54547  -0.54467  -0.54372
 Alpha  occ. eigenvalues --   -0.53675  -0.52877  -0.52742  -0.52293  -0.52001
 Alpha  occ. eigenvalues --   -0.51043  -0.50902  -0.49957  -0.49327  -0.48467
 Alpha  occ. eigenvalues --   -0.48048  -0.47494  -0.46875  -0.46044  -0.42889
 Alpha  occ. eigenvalues --   -0.41950  -0.41722  -0.41216  -0.39296  -0.39108
 Alpha  occ. eigenvalues --   -0.38570  -0.38283  -0.24669
 Alpha virt. eigenvalues --    0.08118   0.18776   0.19447   0.19950   0.20122
 Alpha virt. eigenvalues --    0.21310   0.21446   0.22976   0.23676   0.24264
 Alpha virt. eigenvalues --    0.25520   0.25980   0.26375   0.26773   0.27517

 Mulliken atomic charges:
              1
     1  C   -0.279486
     2  N   -0.782181
     3  C    0.821497
     4  O   -0.629785
     5  C    0.102579
     6  C   -0.472053
     7  C   -0.331374
     8  C   -0.317674
     9  C   -0.340604
    10  C   -0.209492
    11  C   -0.216144
    12  C   -0.322227
    13  C   -0.315120
    14  C   -0.326227
    15  C    0.092383
    16  C   -0.509343
    17  N   -0.787526
    18  C    0.767028
    19  C   -0.595621
    20  O   -0.614699
    21  C    0.819694
    22  O   -0.638101
    23  N   -0.807443
    24  C   -0.274701
    25  N   -0.842980
    26  C    0.744741
    27  C   -0.588621
    28  O   -0.591431
    29  H    0.186148
    30  H    0.198334
    31  H    0.164484
    32  H    0.390960
    33  H    0.198946
    34  H    0.143914
    35  H    0.212248
    36  H    0.160881
    37  H    0.175170
    38  H    0.163265
    39  H    0.172719
    40  H    0.223979
    41  H    0.179938
    42  H    0.185519
    43  H    0.171105
    44  H    0.186351
    45  H    0.175106
    46  H    0.144175
    47  H    0.193965
    48  H    0.174395
    49  H    0.176404
    50  H    0.184816
    51  H    0.146328
    52  H    0.226514
    53  H    0.390882
    54  H    0.211179
    55  H    0.209528
    56  H    0.177098
    57  H    0.395384
    58  H    0.162664
    59  H    0.196666
    60  H    0.186914
    61  H    0.382052
    62  H    0.218950
    63  H    0.176671
    64  H    0.201260
 Sum of Mulliken atomic charges =   0.00000

 Dipole moment (field-independent basis, Debye):
    X=             -0.1906    Y=              1.3083    Z=             -5.9376  Tot=              6.0830
 Quadrupole moment (field-independent basis, Debye-Ang):
   XX=           -216.0838   YY=           -160.2528   ZZ=           -169.2020
   XY=             30.1042   XZ=            -24.4121   YZ=             -5.7130

 Normal termination of Gaussian 09 at Thu Dec  5 18:30:37 2019.
