 Gaussian 09, Revision A.02,
 Gaussian 09:  EM64L-G09RevA.02 11-Jun-2009

 ---------------------------------
 #SP HF/6-31G* Geom=(ModRedundant)
 ---------------------------------

 ------------
 paramfit run
 ------------
 Symbolic Z-matrix:
 Charge =  0 Multiplicity = 1

                         Standard orientation:
 ---------------------------------------------------------------------
 Center     Atomic      Atomic             Coordinates (Angstroms)
 Number     Number       Type             X           Y           Z
 ---------------------------------------------------------------------
      1          6    20001001       -3.624086    2.895888    0.188029
      2          7    20001014       -4.028404    1.517598    0.372657
      3          6    20001002       -4.318905    0.749443   -0.703288
      4          8    20001024       -4.046406    1.079396   -1.824279
      5          6    90000001       -4.899337   -0.645838   -0.410585
      6          6    90000002       -5.592415   -1.186834   -1.665498
      7          6    90000002       -3.775174   -1.601239    0.074254
      8          6    90000002       -2.587202   -1.891931   -0.860550
      9          6    90000002       -1.435806   -0.867319   -0.893657
     10          6    20001004       -0.807618   -0.604710    0.454933
     11          6    20001004        0.302882   -1.132685    0.943593
     12          6    90000002        1.326054   -1.963415    0.206869
     13          6    90000002        2.604733   -1.198091   -0.178907
     14          6    90000002        3.361781   -0.656536    1.041138
     15          6    90000002        4.756799   -0.020361    0.809078
     16          6    90000002        5.265424    0.492230    2.166282
     17          7    20001014        5.658794   -1.049488    0.310246
     18          6    20001002        6.918432   -0.746572   -0.119420
     19          6    20001001        7.585146   -1.821011   -0.947597
     20          8    20001024        7.461953    0.291656    0.137113
     21          6    20001002        4.624148    1.073756   -0.274452
     22          8    20001024        4.651423    0.779574   -1.439201
     23          7    20001014        4.376637    2.334599    0.141475
     24          6    20001001        4.291650    3.416116   -0.818368
     25          7    20001014       -5.844601   -0.582451    0.713643
     26          6    20001002       -6.975295    0.179905    0.709645
     27          6    20001001       -7.982807   -0.158711    1.788709
     28          8    20001024       -7.157153    1.062433   -0.080426
     29          1    20001035       -4.426447    3.500445   -0.219006
     30          1    20001035       -2.782806    2.942029   -0.487873
     31          1    20001035       -3.325259    3.299889    1.147112
     32          1    20001029       -4.491426    1.287833    1.220657
     33          1    20001034       -4.913800   -1.217958   -2.504215
     34          1    20001034       -5.961420   -2.189358   -1.470520
     35          1    20001034       -6.423199   -0.553021   -1.939370
     36          1    20001034       -4.264742   -2.551736    0.274498
     37          1    20001034       -3.406465   -1.241895    1.029872
     38          1    20001034       -2.169053   -2.841622   -0.539838
     39          1    20001034       -2.941927   -2.046140   -1.874336
     40          1    20001034       -1.783939    0.068959   -1.310249
     41          1    20001034       -0.691519   -1.244520   -1.586182
     42          1    20001033       -1.335261    0.099794    1.077331
     43          1    20001033        0.516548   -0.954200    1.985827
     44          1    20001034        0.893984   -2.378461   -0.695637
     45          1    20001034        1.596633   -2.813439    0.832042
     46          1    20001034        3.232302   -1.872310   -0.755068
     47          1    20001034        2.347815   -0.386585   -0.846951
     48          1    20001034        3.503317   -1.457911    1.763149
     49          1    20001034        2.746680    0.092611    1.525678
     50          1    20001034        5.422314   -0.356938    2.821171
     51          1    20001034        4.534489    1.138249    2.641440
     52          1    20001034        6.202576    1.019274    2.067755
     53          1    20001029        5.221518   -1.796717   -0.178783
     54          1    20001034        8.654184   -1.674095   -0.922418
     55          1    20001034        7.244784   -1.727322   -1.974485
     56          1    20001034        7.342124   -2.817638   -0.595380
     57          1    20001029        4.598300    2.575301    1.078618
     58          1    20001035        3.970155    4.311374   -0.302542
     59          1    20001035        3.568225    3.170308   -1.581820
     60          1    20001035        5.246471    3.604271   -1.298647
     61          1    20001029       -5.846565   -1.373735    1.318136
     62          1    20001034       -8.617880    0.699183    1.955057
     63          1    20001034       -7.506630   -0.446970    2.719145
     64          1    20001034       -8.600030   -0.985754    1.452797
 ---------------------------------------------------------------------

 SCF Done:  E(RHF) =  -1295.61981052     A.U. after   14 cycles

 The electronic state is 1-A.
 Alpha  occ. eigenvalues --  -20.53655 -20.52041 -20.51846 -20.51583 -15.59613
 Alpha  occ. eigenvalues --  -15.57899 -15.57539 -15.57516 -11.35974 -11.34248
 Alpha  occ. eigenvalues --  -11.33860 -11.33671 -11.29028 -11.28559 -11.24986
 Alpha  occ. eigenvalues --  -11.24907 -11.24367 -11.23998 -11.23376 -11.22730
 Alpha  occ. eigenvalues --  -11.22514 -11.22506 -11.22360 -11.22256 -11.22054
 Alpha  occ. eigenvalues --  -11.21807 -11.21580 -11.20858  -1.40592  -1.39359
 Alpha  occ. eigenvalues --   -1.38704  -1.38083  -1.25437  -1.23542  -1.22611
 Alpha  occ. eigenvalues --   -1.22085  -1.10753  -1.09262  -1.07191  -1.04230
 Alpha  occ. eigenvalues --   -1.01238  -0.99324  -0.98733  -0.95525  -0.95124
 Alpha  occ. eigenvalues --   -0.94576  -0.92182  -0.87249  -0.85714  -0.82830
 Alpha  occ. eigenvalues --   -0.81366  -0.79490  -0.78793  -0.77185  -0.76871
 Alpha  occ. eigenvalues --   -0.71861  -0.71279  -0.71070  -0.68943  -0.67980
 Alpha  occ. eigenvalues --   -0.66654  -0.65867  -0.64544  -0.63977  -0.63723
 Alpha  occ. eigenvalues --   -0.62586  -0.62304  -0.61807  -0.61422  -0.61178
 Alpha  occ. eigenvalues --   -0.60936  -0.59900  -0.59334  -0.58734  -0.58425
 Alpha  occ. eigenvalues --   -0.58248  -0.57832  -0.56614  -0.56391  -0.56221
 Alpha  occ. eigenvalues --   -0.55516  -0.54868  -0.54744  -0.54559  -0.53929
 Alpha  occ. eigenvalues --   -0.53076  -0.52839  -0.52467  -0.52176  -0.51530
 Alpha  occ. eigenvalues --   -0.51031  -0.50328  -0.49769  -0.49215  -0.48534
 Alpha  occ. eigenvalues --   -0.48336  -0.46931  -0.46347  -0.44595  -0.42878
 Alpha  occ. eigenvalues --   -0.41942  -0.41493  -0.41056  -0.39289  -0.38833
 Alpha  occ. eigenvalues --   -0.38322  -0.38272  -0.34340
 Alpha virt. eigenvalues --    0.17356   0.18794   0.19647   0.19970   0.20217
 Alpha virt. eigenvalues --    0.21586   0.21929   0.23176   0.23189   0.24036
 Alpha virt. eigenvalues --    0.25242   0.25666   0.26544   0.27072   0.27695

 Mulliken atomic charges:
              1
     1  C   -0.279739
     2  N   -0.783457
     3  C    0.821999
     4  O   -0.627980
     5  C    0.102342
     6  C   -0.472839
     7  C   -0.334439
     8  C   -0.310763
     9  C   -0.373072
    10  C   -0.179121
    11  C   -0.177175
    12  C   -0.352884
    13  C   -0.309434
    14  C   -0.328886
    15  C    0.090868
    16  C   -0.509522
    17  N   -0.787587
    18  C    0.767289
    19  C   -0.595704
    20  O   -0.613935
    21  C    0.820623
    22  O   -0.639132
    23  N   -0.806083
    24  C   -0.275568
    25  N   -0.843087
    26  C    0.744547
    27  C   -0.588666
    28  O   -0.591734
    29  H    0.187046
    30  H    0.198505
    31  H    0.162023
    32  H    0.391250
    33  H    0.198860
    34  H    0.144072
    35  H    0.212556
    36  H    0.161293
    37  H    0.182275
    38  H    0.164799
    39  H    0.180392
    40  H    0.211524
    41  H    0.173889
    42  H    0.181272
    43  H    0.169767
    44  H    0.177016
    45  H    0.157535
    46  H    0.151959
    47  H    0.199760
    48  H    0.173073
    49  H    0.184833
    50  H    0.183508
    51  H    0.148093
    52  H    0.226597
    53  H    0.389810
    54  H    0.211142
    55  H    0.209587
    56  H    0.176318
    57  H    0.395191
    58  H    0.164547
    59  H    0.199837
    60  H    0.185097
    61  H    0.382575
    62  H    0.218625
    63  H    0.177135
    64  H    0.201376
 Sum of Mulliken atomic charges =   0.00000

 Dipole moment (field-independent basis, Debye):
    X=             -2.7355    Y=             -4.0134    Z=              6.7786  Tot=              8.3390
 Quadrupole moment (field-independent basis, Debye-Ang):
   XX=           -195.0540   YY=           -155.7548   ZZ=           -173.9276
   XY=             10.3579   XZ=            -21.1270   YZ=              9.6057

 Normal termination of Gaussian 09 at Thu Dec  5 17:46:20 2019.
