 Gaussian 09, Revision A.02,
 Gaussian 09:  EM64L-G09RevA.02 11-Jun-2009

 ---------------------------------
 #SP HF/6-31G* Geom=(ModRedundant)
 ---------------------------------

 ------------
 paramfit run
 ------------
 Symbolic Z-matrix:
 Charge =  0 Multiplicity = 1

                         Standard orientation:
 ---------------------------------------------------------------------
 Center     Atomic      Atomic             Coordinates (Angstroms)
 Number     Number       Type             X           Y           Z
 ---------------------------------------------------------------------
      1          6    20001001       -5.304976    2.720546    0.428973
      2          7    20001014       -4.629585    1.442196    0.512125
      3          6    20001002       -4.539580    0.653731   -0.584383
      4          8    20001024       -4.795322    1.050700   -1.687450
      5          6    90000001       -3.956220   -0.754212   -0.368111
      6          6    90000002       -4.341988   -1.655860   -1.545419
      7          6    90000002       -2.415030   -0.673293   -0.195520
      8          6    90000002       -1.563888   -0.100948   -1.343394
      9          6    90000002       -1.438722    1.432218   -1.445230
     10          6    20001004       -0.893111    2.088613   -0.198741
     11          6    20001004        0.352022    2.472804    0.031036
     12          6    90000002        1.199853    2.163177    1.241436
     13          6    90000002        2.247098    1.057815    1.015563
     14          6    90000002        3.262091    1.417917   -0.077612
     15          6    90000002        4.474891    0.474057   -0.284715
     16          6    90000002        5.293033    1.020926   -1.465828
     17          7    20001014        5.290718    0.495484    0.921725
     18          6    20001002        6.348847   -0.351657    1.082262
     19          6    20001001        6.852103   -0.481287    2.501676
     20          8    20001024        6.847277   -0.951180    0.170516
     21          6    20001002        3.948931   -0.964964   -0.487965
     22          8    20001024        3.677332   -1.650528    0.460805
     23          7    20001014        3.715281   -1.368841   -1.755353
     24          6    20001001        3.270432   -2.721767   -2.019741
     25          7    20001014       -4.443237   -1.322193    0.897449
     26          6    20001002       -5.761521   -1.535814    1.173433
     27          6    20001001       -6.032045   -2.441342    2.357053
     28          8    20001024       -6.644697   -1.035761    0.536183
     29          1    20001035       -6.365444    2.604605    0.236842
     30          1    20001035       -4.874326    3.309720   -0.367355
     31          1    20001035       -5.168239    3.245328    1.366128
     32          1    20001029       -4.632425    0.981268    1.391798
     33          1    20001034       -4.008451   -1.238434   -2.483204
     34          1    20001034       -3.891740   -2.635141   -1.413045
     35          1    20001034       -5.415244   -1.766222   -1.598981
     36          1    20001034       -2.084533   -1.696591   -0.031651
     37          1    20001034       -2.199224   -0.133608    0.721240
     38          1    20001034       -0.562840   -0.501585   -1.212963
     39          1    20001034       -1.919364   -0.482687   -2.294859
     40          1    20001034       -2.400408    1.868214   -1.682784
     41          1    20001034       -0.796185    1.645322   -2.292322
     42          1    20001033       -1.615459    2.260615    0.582758
     43          1    20001033        0.830309    3.073742   -0.726510
     44          1    20001034        0.572683    1.870870    2.074910
     45          1    20001034        1.708438    3.075643    1.550210
     46          1    20001034        2.747263    0.877820    1.963092
     47          1    20001034        1.743096    0.133761    0.764690
     48          1    20001034        3.669850    2.406972    0.119967
     49          1    20001034        2.741676    1.480639   -1.026075
     50          1    20001034        5.701075    1.985757   -1.188011
     51          1    20001034        4.668438    1.171924   -2.340163
     52          1    20001034        6.114827    0.367674   -1.718128
     53          1    20001029        4.803242    0.714840    1.760153
     54          1    20001034        7.868389   -0.844501    2.484419
     55          1    20001034        6.232602   -1.204402    3.023644
     56          1    20001034        6.806665    0.460058    3.038507
     57          1    20001029        4.166429   -0.886056   -2.496091
     58          1    20001035        3.026467   -2.806094   -3.070592
     59          1    20001035        2.388174   -2.936561   -1.434838
     60          1    20001035        4.033214   -3.452424   -1.770624
     61          1    20001029       -3.790065   -1.885833    1.394665
     62          1    20001034       -7.026791   -2.242658    2.728505
     63          1    20001034       -5.309820   -2.302517    3.153714
     64          1    20001034       -5.984552   -3.475779    2.032266
 ---------------------------------------------------------------------

 SCF Done:  E(RHF) =  -1295.57010676     A.U. after   14 cycles

 The electronic state is 1-A.
 Alpha  occ. eigenvalues --  -20.53562 -20.52325 -20.52041 -20.51775 -15.59512
 Alpha  occ. eigenvalues --  -15.58338 -15.57812 -15.57453 -11.35877 -11.34530
 Alpha  occ. eigenvalues --  -11.34099 -11.33785 -11.28951 -11.28852 -11.25508
 Alpha  occ. eigenvalues --  -11.24845 -11.24250 -11.23892 -11.23610 -11.22970
 Alpha  occ. eigenvalues --  -11.22933 -11.22895 -11.22785 -11.22429 -11.22251
 Alpha  occ. eigenvalues --  -11.22013 -11.21814 -11.20818  -1.40500  -1.39727
 Alpha  occ. eigenvalues --   -1.38633  -1.38459  -1.25341  -1.23846  -1.23051
 Alpha  occ. eigenvalues --   -1.22003  -1.10806  -1.09427  -1.07280  -1.04525
 Alpha  occ. eigenvalues --   -1.01335  -0.99424  -0.98947  -0.95557  -0.95452
 Alpha  occ. eigenvalues --   -0.94938  -0.91968  -0.87373  -0.85574  -0.82922
 Alpha  occ. eigenvalues --   -0.81134  -0.79840  -0.78599  -0.77251  -0.77103
 Alpha  occ. eigenvalues --   -0.73668  -0.71774  -0.71116  -0.68990  -0.68134
 Alpha  occ. eigenvalues --   -0.65846  -0.65430  -0.64610  -0.64334  -0.63588
 Alpha  occ. eigenvalues --   -0.62491  -0.62387  -0.61942  -0.61747  -0.61177
 Alpha  occ. eigenvalues --   -0.61005  -0.60154  -0.59293  -0.59064  -0.58879
 Alpha  occ. eigenvalues --   -0.58156  -0.57781  -0.56813  -0.56620  -0.56406
 Alpha  occ. eigenvalues --   -0.55650  -0.55105  -0.54960  -0.54544  -0.54229
 Alpha  occ. eigenvalues --   -0.53548  -0.53107  -0.52609  -0.52288  -0.51786
 Alpha  occ. eigenvalues --   -0.50965  -0.50808  -0.50066  -0.49236  -0.48839
 Alpha  occ. eigenvalues --   -0.48198  -0.46967  -0.46400  -0.46280  -0.42797
 Alpha  occ. eigenvalues --   -0.41869  -0.41853  -0.41348  -0.39219  -0.39205
 Alpha  occ. eigenvalues --   -0.38676  -0.38246  -0.30235
 Alpha virt. eigenvalues --    0.13629   0.18879   0.19301   0.19930   0.20123
 Alpha virt. eigenvalues --    0.21140   0.21318   0.22861   0.23300   0.23708
 Alpha virt. eigenvalues --    0.24970   0.25615   0.25813   0.27048   0.27332

 Mulliken atomic charges:
              1
     1  C   -0.279755
     2  N   -0.783047
     3  C    0.822446
     4  O   -0.628775
     5  C    0.102054
     6  C   -0.473154
     7  C   -0.335292
     8  C   -0.311747
     9  C   -0.356227
    10  C   -0.185160
    11  C   -0.185267
    12  C   -0.336302
    13  C   -0.308066
    14  C   -0.328178
    15  C    0.089224
    16  C   -0.509958
    17  N   -0.786829
    18  C    0.767235
    19  C   -0.595761
    20  O   -0.613618
    21  C    0.820038
    22  O   -0.641728
    23  N   -0.806139
    24  C   -0.274752
    25  N   -0.843121
    26  C    0.744390
    27  C   -0.588660
    28  O   -0.592213
    29  H    0.186808
    30  H    0.197497
    31  H    0.162757
    32  H    0.391560
    33  H    0.197416
    34  H    0.144678
    35  H    0.212614
    36  H    0.163687
    37  H    0.183864
    38  H    0.168478
    39  H    0.183200
    40  H    0.202411
    41  H    0.164393
    42  H    0.183305
    43  H    0.174484
    44  H    0.167341
    45  H    0.150577
    46  H    0.155519
    47  H    0.192320
    48  H    0.176143
    49  H    0.186400
    50  H    0.185285
    51  H    0.149565
    52  H    0.226631
    53  H    0.389272
    54  H    0.211904
    55  H    0.208058
    56  H    0.177246
    57  H    0.397020
    58  H    0.166625
    59  H    0.193972
    60  H    0.186195
    61  H    0.383497
    62  H    0.218291
    63  H    0.177793
    64  H    0.201556
 Sum of Mulliken atomic charges =   0.00000

 Dipole moment (field-independent basis, Debye):
    X=              1.3098    Y=              0.0663    Z=              3.7784  Tot=              3.9995
 Quadrupole moment (field-independent basis, Debye-Ang):
   XX=           -220.3160   YY=           -165.7365   ZZ=           -157.4070
   XY=             22.2650   XZ=            -22.2815   YZ=              4.7463

 Normal termination of Gaussian 09 at Thu Dec  5 17:36:11 2019.
