 Gaussian 09, Revision A.02,
 Gaussian 09:  EM64L-G09RevA.02 11-Jun-2009

 ---------------------------------
 #SP HF/6-31G* Geom=(ModRedundant)
 ---------------------------------

 ------------
 paramfit run
 ------------
 Symbolic Z-matrix:
 Charge =  0 Multiplicity = 1

                         Standard orientation:
 ---------------------------------------------------------------------
 Center     Atomic      Atomic             Coordinates (Angstroms)
 Number     Number       Type             X           Y           Z
 ---------------------------------------------------------------------
      1          6    20001001       -3.372226    2.757280   -0.629761
      2          7    20001014       -3.850139    1.509289   -0.071762
      3          6    20001002       -4.312203    0.536391   -0.891564
      4          8    20001024       -4.143385    0.559209   -2.079304
      5          6    90000001       -4.953875   -0.685095   -0.209205
      6          6    90000002       -5.818810   -1.442985   -1.221792
      7          6    90000002       -3.853301   -1.599194    0.394751
      8          6    90000002       -2.800276   -2.218959   -0.541553
      9          6    90000002       -1.590017   -1.347866   -0.932845
     10          6    20001004       -0.798712   -0.830090    0.245299
     11          6    20001004        0.319029   -1.329122    0.747672
     12          6    90000002        1.403391   -2.077309    0.010020
     13          6    90000002        2.656454   -1.237500   -0.296766
     14          6    90000002        3.347405   -0.719330    0.971698
     15          6    90000002        4.717727   -0.010245    0.816584
     16          6    90000002        5.157592    0.461346    2.212138
     17          7    20001014        5.682757   -0.972975    0.303361
     18          6    20001002        6.939974   -0.593422   -0.068668
     19          6    20001001        7.682874   -1.596772   -0.920838
     20          8    20001024        7.425502    0.455420    0.252789
     21          6    20001002        4.568829    1.125863   -0.220630
     22          8    20001024        4.647505    0.887661   -1.395789
     23          7    20001014        4.248995    2.353450    0.242747
     24          6    20001001        4.144282    3.473408   -0.669904
     25          7    20001014       -5.761351   -0.262611    0.944450
     26          6    20001002       -6.828596    0.581347    0.852829
     27          6    20001001       -7.731284    0.610662    2.068729
     28          8    20001024       -7.034207    1.261127   -0.112450
     29          1    20001035       -4.170014    3.320325   -1.100359
     30          1    20001035       -2.610201    2.558434   -1.369019
     31          1    20001035       -2.940710    3.349539    0.167344
     32          1    20001029       -4.231080    1.535857    0.845006
     33          1    20001034       -5.241612   -1.740008   -2.084088
     34          1    20001034       -6.233942   -2.328939   -0.750635
     35          1    20001034       -6.627889   -0.816915   -1.568711
     36          1    20001034       -4.383671   -2.422052    0.868918
     37          1    20001034       -3.356063   -1.057612    1.193326
     38          1    20001034       -2.417400   -3.099227   -0.033467
     39          1    20001034       -3.275587   -2.577747   -1.448595
     40          1    20001034       -1.915103   -0.510344   -1.536367
     41          1    20001034       -0.955983   -1.950285   -1.573879
     42          1    20001033       -1.202602    0.050782    0.717581
     43          1    20001033        0.490298   -1.189717    1.803605
     44          1    20001034        1.020686   -2.469204   -0.924550
     45          1    20001034        1.693315   -2.942268    0.605321
     46          1    20001034        3.333312   -1.854967   -0.880693
     47          1    20001034        2.383364   -0.408363   -0.936128
     48          1    20001034        3.503082   -1.546115    1.661427
     49          1    20001034        2.682429   -0.022268    1.467947
     50          1    20001034        5.333013   -0.409313    2.833235
     51          1    20001034        4.382124    1.050662    2.690403
     52          1    20001034        6.071616    1.034494    2.169687
     53          1    20001029        5.297124   -1.715799   -0.233492
     54          1    20001034        8.742449   -1.402695   -0.852318
     55          1    20001034        7.371817   -1.471058   -1.953585
     56          1    20001034        7.475741   -2.618712   -0.622313
     57          1    20001029        4.428717    2.560188    1.196827
     58          1    20001035        3.764552    4.328175   -0.125755
     59          1    20001035        3.458247    3.230674   -1.468066
     60          1    20001035        5.104208    3.726924   -1.108109
     61          1    20001029       -5.752131   -0.881259    1.724667
     62          1    20001034       -8.281521    1.540283    2.072761
     63          1    20001034       -7.176204    0.510369    2.994676
     64          1    20001034       -8.439079   -0.209691    2.006693
 ---------------------------------------------------------------------

 SCF Done:  E(RHF) =  -1295.60256093     A.U. after   14 cycles

 The electronic state is 1-A.
 Alpha  occ. eigenvalues --  -20.53658 -20.52065 -20.51829 -20.51634 -15.59617
 Alpha  occ. eigenvalues --  -15.57968 -15.57540 -15.57524 -11.35978 -11.34269
 Alpha  occ. eigenvalues --  -11.33845 -11.33720 -11.29027 -11.28587 -11.25077
 Alpha  occ. eigenvalues --  -11.24889 -11.24374 -11.23992 -11.23373 -11.22811
 Alpha  occ. eigenvalues --  -11.22516 -11.22507 -11.22421 -11.22324 -11.22129
 Alpha  occ. eigenvalues --  -11.21844 -11.21608 -11.20868  -1.40593  -1.39395
 Alpha  occ. eigenvalues --   -1.38688  -1.38121  -1.25437  -1.23568  -1.22678
 Alpha  occ. eigenvalues --   -1.22073  -1.10735  -1.09285  -1.07205  -1.04270
 Alpha  occ. eigenvalues --   -1.01262  -0.99339  -0.98754  -0.95514  -0.95165
 Alpha  occ. eigenvalues --   -0.94620  -0.92157  -0.87243  -0.85727  -0.82830
 Alpha  occ. eigenvalues --   -0.81389  -0.79529  -0.78828  -0.77174  -0.76921
 Alpha  occ. eigenvalues --   -0.71877  -0.71275  -0.71070  -0.68949  -0.67974
 Alpha  occ. eigenvalues --   -0.66430  -0.65887  -0.64606  -0.64035  -0.63795
 Alpha  occ. eigenvalues --   -0.62575  -0.62236  -0.61915  -0.61468  -0.61216
 Alpha  occ. eigenvalues --   -0.60981  -0.59912  -0.59320  -0.58796  -0.58457
 Alpha  occ. eigenvalues --   -0.58194  -0.57797  -0.56765  -0.56430  -0.56217
 Alpha  occ. eigenvalues --   -0.55530  -0.54914  -0.54777  -0.54546  -0.53966
 Alpha  occ. eigenvalues --   -0.53104  -0.52882  -0.52502  -0.52241  -0.51566
 Alpha  occ. eigenvalues --   -0.51030  -0.50465  -0.49798  -0.49078  -0.48586
 Alpha  occ. eigenvalues --   -0.48324  -0.46935  -0.46262  -0.45265  -0.42885
 Alpha  occ. eigenvalues --   -0.41933  -0.41524  -0.41080  -0.39283  -0.38881
 Alpha  occ. eigenvalues --   -0.38323  -0.38303  -0.32785
 Alpha virt. eigenvalues --    0.16219   0.18786   0.19598   0.19949   0.20182
 Alpha virt. eigenvalues --    0.21495   0.21756   0.23152   0.23238   0.24200
 Alpha virt. eigenvalues --    0.25221   0.25717   0.26510   0.26986   0.27676

 Mulliken atomic charges:
              1
     1  C   -0.279884
     2  N   -0.783477
     3  C    0.822200
     4  O   -0.627789
     5  C    0.102307
     6  C   -0.472937
     7  C   -0.334674
     8  C   -0.309165
     9  C   -0.369030
    10  C   -0.181664
    11  C   -0.180279
    12  C   -0.349447
    13  C   -0.307938
    14  C   -0.328430
    15  C    0.090524
    16  C   -0.509395
    17  N   -0.787494
    18  C    0.767249
    19  C   -0.595730
    20  O   -0.614070
    21  C    0.820618
    22  O   -0.638881
    23  N   -0.806400
    24  C   -0.275444
    25  N   -0.843067
    26  C    0.744539
    27  C   -0.588648
    28  O   -0.591660
    29  H    0.187051
    30  H    0.198898
    31  H    0.161853
    32  H    0.391098
    33  H    0.198657
    34  H    0.144009
    35  H    0.212640
    36  H    0.161066
    37  H    0.182426
    38  H    0.165150
    39  H    0.181779
    40  H    0.207177
    41  H    0.171603
    42  H    0.183908
    43  H    0.171131
    44  H    0.177862
    45  H    0.152313
    46  H    0.153943
    47  H    0.199384
    48  H    0.173262
    49  H    0.184166
    50  H    0.183727
    51  H    0.147611
    52  H    0.226547
    53  H    0.389885
    54  H    0.211144
    55  H    0.209677
    56  H    0.176534
    57  H    0.395145
    58  H    0.164013
    59  H    0.199421
    60  H    0.185486
    61  H    0.382458
    62  H    0.218653
    63  H    0.177031
    64  H    0.201358
 Sum of Mulliken atomic charges =   0.00000

 Dipole moment (field-independent basis, Debye):
    X=             -2.4216    Y=             -2.8763    Z=              7.3107  Tot=              8.2210
 Quadrupole moment (field-independent basis, Debye-Ang):
   XX=           -197.6010   YY=           -155.8377   ZZ=           -174.6294
   XY=              1.7797   XZ=            -26.5115   YZ=              8.3550

 Normal termination of Gaussian 09 at Thu Dec  5 17:56:56 2019.
