 Gaussian 09, Revision A.02,
 Gaussian 09:  EM64L-G09RevA.02 11-Jun-2009

 ---------------------------------
 #SP HF/6-31G* Geom=(ModRedundant)
 ---------------------------------

 ------------
 paramfit run
 ------------
 Symbolic Z-matrix:
 Charge =  0 Multiplicity = 1

                         Standard orientation:
 ---------------------------------------------------------------------
 Center     Atomic      Atomic             Coordinates (Angstroms)
 Number     Number       Type             X           Y           Z
 ---------------------------------------------------------------------
      1          6    20001001       -5.249395    2.651932    0.792469
      2          7    20001014       -4.562355    1.380563    0.698435
      3          6    20001002       -4.550339    0.704907   -0.474362
      4          8    20001024       -4.890377    1.204957   -1.510736
      5          6    90000001       -3.944341   -0.709704   -0.442305
      6          6    90000002       -4.412164   -1.496284   -1.671238
      7          6    90000002       -2.395036   -0.625938   -0.377202
      8          6    90000002       -1.635692    0.067539   -1.522681
      9          6    90000002       -1.527305    1.604802   -1.481275
     10          6    20001004       -0.893498    2.142633   -0.219806
     11          6    20001004        0.363141    2.518678   -0.046009
     12          6    90000002        1.235986    2.274316    1.161543
     13          6    90000002        2.258993    1.137811    0.984405
     14          6    90000002        3.251908    1.406750   -0.154324
     15          6    90000002        4.443509    0.429629   -0.327433
     16          6    90000002        5.240505    0.882642   -1.561542
     17          7    20001014        5.289681    0.515862    0.854975
     18          6    20001002        6.337516   -0.337747    1.045891
     19          6    20001001        6.874145   -0.382556    2.458274
     20          8    20001024        6.802969   -1.004938    0.164216
     21          6    20001002        3.889131   -1.009967   -0.422065
     22          8    20001024        3.630318   -1.626498    0.576350
     23          7    20001014        3.617086   -1.492245   -1.653885
     24          6    20001001        3.143653   -2.851437   -1.817163
     25          7    20001014       -4.331789   -1.405629    0.793415
     26          6    20001002       -5.624410   -1.662600    1.143800
     27          6    20001001       -5.800191   -2.683519    2.248763
     28          8    20001024       -6.555751   -1.113972    0.626353
     29          1    20001035       -6.320606    2.541538    0.668898
     30          1    20001035       -4.883077    3.322098    0.028655
     31          1    20001035       -5.045753    3.083835    1.764242
     32          1    20001029       -4.496558    0.835430    1.525953
     33          1    20001034       -4.152310   -0.984392   -2.585227
     34          1    20001034       -3.947649   -2.477845   -1.670151
     35          1    20001034       -5.485763   -1.614909   -1.655803
     36          1    20001034       -2.047319   -1.655964   -0.340347
     37          1    20001034       -2.114165   -0.176165    0.569949
     38          1    20001034       -0.625401   -0.330816   -1.507059
     39          1    20001034       -2.059346   -0.223486   -2.478294
     40          1    20001034       -2.506584    2.049384   -1.602615
     41          1    20001034       -0.951354    1.908517   -2.348380
     42          1    20001033       -1.556162    2.227527    0.626234
     43          1    20001033        0.831978    3.059669   -0.853030
     44          1    20001034        0.625291    2.048919    2.027404
     45          1    20001034        1.767037    3.195857    1.396790
     46          1    20001034        2.779832    1.011704    1.929496
     47          1    20001034        1.733789    0.208445    0.807575
     48          1    20001034        3.680635    2.399184   -0.032656
     49          1    20001034        2.708885    1.416162   -1.092081
     50          1    20001034        5.671139    1.856193   -1.358235
     51          1    20001034        4.596659    0.986884   -2.428709
     52          1    20001034        6.044894    0.199504   -1.789620
     53          1    20001029        4.827112    0.798746    1.688474
     54          1    20001034        7.883597   -0.764337    2.440738
     55          1    20001034        6.256230   -1.058427    3.041802
     56          1    20001034        6.857635    0.592795    2.932405
     57          1    20001029        4.057287   -1.067535   -2.435648
     58          1    20001035        2.871972   -3.000453   -2.853940
     59          1    20001035        2.272997   -3.011301   -1.198270
     60          1    20001035        3.900408   -3.577684   -1.538521
     61          1    20001029       -3.639941   -2.006787    1.182647
     62          1    20001034       -6.765393   -2.535355    2.710721
     63          1    20001034       -5.021048   -2.614191    2.999550
     64          1    20001034       -5.771268   -3.680323    1.820574
 ---------------------------------------------------------------------

 SCF Done:  E(RHF) =  -1295.58994158     A.U. after   14 cycles

 The electronic state is 1-A.
 Alpha  occ. eigenvalues --  -20.53562 -20.52348 -20.52083 -20.51789 -15.59513
 Alpha  occ. eigenvalues --  -15.58394 -15.57834 -15.57463 -11.35877 -11.34552
 Alpha  occ. eigenvalues --  -11.34141 -11.33798 -11.28963 -11.28885 -11.25585
 Alpha  occ. eigenvalues --  -11.24845 -11.24243 -11.23914 -11.23648 -11.22926
 Alpha  occ. eigenvalues --  -11.22893 -11.22865 -11.22801 -11.22391 -11.22206
 Alpha  occ. eigenvalues --  -11.22046 -11.21807 -11.20831  -1.40502  -1.39760
 Alpha  occ. eigenvalues --   -1.38646  -1.38491  -1.25346  -1.23871  -1.23105
 Alpha  occ. eigenvalues --   -1.22011  -1.10799  -1.09441  -1.07290  -1.04541
 Alpha  occ. eigenvalues --   -1.01326  -0.99431  -0.98958  -0.95599  -0.95460
 Alpha  occ. eigenvalues --   -0.94977  -0.91953  -0.87386  -0.85588  -0.82936
 Alpha  occ. eigenvalues --   -0.81132  -0.79875  -0.78596  -0.77292  -0.77112
 Alpha  occ. eigenvalues --   -0.73784  -0.71810  -0.71121  -0.69000  -0.68160
 Alpha  occ. eigenvalues --   -0.65849  -0.65454  -0.64676  -0.64331  -0.63601
 Alpha  occ. eigenvalues --   -0.62507  -0.62388  -0.61952  -0.61778  -0.61165
 Alpha  occ. eigenvalues --   -0.61000  -0.60160  -0.59280  -0.59126  -0.58908
 Alpha  occ. eigenvalues --   -0.58153  -0.57821  -0.56768  -0.56585  -0.56454
 Alpha  occ. eigenvalues --   -0.55695  -0.55155  -0.54975  -0.54543  -0.54219
 Alpha  occ. eigenvalues --   -0.53523  -0.53068  -0.52606  -0.52301  -0.51754
 Alpha  occ. eigenvalues --   -0.50972  -0.50795  -0.50099  -0.49257  -0.48817
 Alpha  occ. eigenvalues --   -0.48266  -0.46967  -0.46407  -0.45970  -0.42801
 Alpha  occ. eigenvalues --   -0.41898  -0.41868  -0.41373  -0.39260  -0.39213
 Alpha  occ. eigenvalues --   -0.38719  -0.38256  -0.31671
 Alpha virt. eigenvalues --    0.14988   0.18881   0.19274   0.19963   0.20117
 Alpha virt. eigenvalues --    0.21156   0.21324   0.22835   0.23405   0.23866
 Alpha virt. eigenvalues --    0.24946   0.25552   0.25904   0.27043   0.27237

 Mulliken atomic charges:
              1
     1  C   -0.279762
     2  N   -0.783132
     3  C    0.822292
     4  O   -0.628827
     5  C    0.102058
     6  C   -0.473056
     7  C   -0.335168
     8  C   -0.310940
     9  C   -0.359457
    10  C   -0.181906
    11  C   -0.180818
    12  C   -0.339838
    13  C   -0.307609
    14  C   -0.328611
    15  C    0.089491
    16  C   -0.509966
    17  N   -0.786864
    18  C    0.767189
    19  C   -0.595757
    20  O   -0.613715
    21  C    0.820114
    22  O   -0.641530
    23  N   -0.806336
    24  C   -0.274543
    25  N   -0.843119
    26  C    0.744337
    27  C   -0.588697
    28  O   -0.592246
    29  H    0.186823
    30  H    0.197624
    31  H    0.162829
    32  H    0.391661
    33  H    0.197503
    34  H    0.144410
    35  H    0.212675
    36  H    0.163212
    37  H    0.184107
    38  H    0.166915
    39  H    0.182100
    40  H    0.204310
    41  H    0.165383
    42  H    0.181402
    43  H    0.172350
    44  H    0.168761
    45  H    0.152943
    46  H    0.154588
    47  H    0.191648
    48  H    0.176288
    49  H    0.185863
    50  H    0.185442
    51  H    0.149347
    52  H    0.226650
    53  H    0.389469
    54  H    0.211915
    55  H    0.208095
    56  H    0.177362
    57  H    0.397062
    58  H    0.166386
    59  H    0.193352
    60  H    0.186426
    61  H    0.383668
    62  H    0.218297
    63  H    0.178071
    64  H    0.201477
 Sum of Mulliken atomic charges =   0.00000

 Dipole moment (field-independent basis, Debye):
    X=              1.6879    Y=             -0.3550    Z=              3.1714  Tot=              3.6101
 Quadrupole moment (field-independent basis, Debye-Ang):
   XX=           -222.8738   YY=           -165.4888   ZZ=           -157.3480
   XY=             24.6576   XZ=            -19.7389   YZ=              6.1393

 Normal termination of Gaussian 09 at Thu Dec  5 17:30:30 2019.
