 Gaussian 09, Revision A.02,
 Gaussian 09:  EM64L-G09RevA.02 11-Jun-2009

 ---------------------------------
 #SP HF/6-31G* Geom=(ModRedundant)
 ---------------------------------

 ------------
 paramfit run
 ------------
 Symbolic Z-matrix:
 Charge =  0 Multiplicity = 1

                         Standard orientation:
 ---------------------------------------------------------------------
 Center     Atomic      Atomic             Coordinates (Angstroms)
 Number     Number       Type             X           Y           Z
 ---------------------------------------------------------------------
      1          6    20001001       -4.284850    2.592521    1.562098
      2          7    20001014       -4.397449    1.235018    1.070413
      3          6    20001002       -4.359980    0.994036   -0.260990
      4          8    20001024       -4.014337    1.822409   -1.057278
      5          6    90000001       -4.653852   -0.450882   -0.702845
      6          6    90000002       -5.030346   -0.466745   -2.188053
      7          6    90000002       -3.425162   -1.356977   -0.418389
      8          6    90000002       -2.084691   -1.034374   -1.103007
      9          6    90000002       -1.193831    0.045785   -0.457823
     10          6    20001004       -0.831686   -0.235317    0.981660
     11          6    20001004        0.289204   -0.766788    1.441986
     12          6    90000002        1.188531   -1.759439    0.745128
     13          6    90000002        2.465194   -1.144506    0.143833
     14          6    90000002        3.365219   -0.494395    1.203184
     15          6    90000002        4.765013    0.005958    0.761743
     16          6    90000002        5.429714    0.663435    1.982132
     17          7    20001014        5.555630   -1.141731    0.338348
     18          6    20001002        6.783167   -0.988423   -0.238459
     19          6    20001001        7.305769   -2.209788   -0.959541
     20          8    20001024        7.406308    0.035091   -0.181375
     21          6    20001002        4.590539    0.947667   -0.451299
     22          8    20001024        4.489175    0.495352   -1.559931
     23          7    20001014        4.455390    2.267704   -0.199868
     24          6    20001001        4.339461    3.210629   -1.293327
     25          7    20001014       -5.736147   -1.025434    0.109534
     26          6    20001002       -6.995200   -0.505026    0.169812
     27          6    20001001       -8.042869   -1.423778    0.763447
     28          8    20001024       -7.255709    0.602373   -0.206942
     29          1    20001035       -5.136352    3.197930    1.273351
     30          1    20001035       -3.389118    3.050146    1.168442
     31          1    20001035       -4.217955    2.564431    2.642417
     32          1    20001029       -4.911334    0.590499    1.624311
     33          1    20001034       -4.252144   -0.027472   -2.793340
     34          1    20001034       -5.192986   -1.491486   -2.508507
     35          1    20001034       -5.934161    0.101375   -2.353232
     36          1    20001034       -3.716398   -2.354652   -0.739395
     37          1    20001034       -3.280479   -1.413401    0.655931
     38          1    20001034       -1.516277   -1.959753   -1.117031
     39          1    20001034       -2.252972   -0.768623   -2.141483
     40          1    20001034       -1.678416    1.011618   -0.518707
     41          1    20001034       -0.296276    0.122836   -1.061388
     42          1    20001033       -1.582384    0.038331    1.705319
     43          1    20001033        0.611734   -0.462257    2.425346
     44          1    20001034        0.649089   -2.263461   -0.047607
     45          1    20001034        1.469744   -2.532346    1.459361
     46          1    20001034        2.995602   -1.933131   -0.382581
     47          1    20001034        2.191273   -0.416483   -0.608351
     48          1    20001034        3.530231   -1.197029    2.017192
     49          1    20001034        2.842606    0.354842    1.627473
     50          1    20001034        5.600848   -0.096691    2.735460
     51          1    20001034        4.785291    1.417489    2.422021
     52          1    20001034        6.381189    1.105921    1.727889
     53          1    20001029        5.032083   -1.916931    0.001187
     54          1    20001034        8.378837   -2.135073   -1.048999
     55          1    20001034        6.874098   -2.234512   -1.955620
     56          1    20001034        7.042102   -3.129484   -0.448640
     57          1    20001029        4.779265    2.618749    0.670294
     58          1    20001035        4.119846    4.188234   -0.884697
     59          1    20001035        3.533349    2.913050   -1.947739
     60          1    20001035        5.252764    3.264671   -1.877033
     61          1    20001029       -5.647538   -1.994868    0.319041
     62          1    20001034       -8.867949   -0.826281    1.122908
     63          1    20001034       -7.648389   -2.027207    1.573267
     64          1    20001034       -8.410341   -2.091237   -0.009382
 ---------------------------------------------------------------------

 SCF Done:  E(RHF) =  -1295.60072421     A.U. after   14 cycles

 The electronic state is 1-A.
 Alpha  occ. eigenvalues --  -20.53640 -20.52052 -20.51862 -20.51595 -15.59597
 Alpha  occ. eigenvalues --  -15.57882 -15.57538 -15.57524 -11.35958 -11.34262
 Alpha  occ. eigenvalues --  -11.33871 -11.33678 -11.29017 -11.28567 -11.24946
 Alpha  occ. eigenvalues --  -11.24901 -11.24348 -11.24000 -11.23424 -11.22673
 Alpha  occ. eigenvalues --  -11.22539 -11.22535 -11.22280 -11.22140 -11.21941
 Alpha  occ. eigenvalues --  -11.21786 -11.21645 -11.20826  -1.40578  -1.39370
 Alpha  occ. eigenvalues --   -1.38719  -1.38094  -1.25424  -1.23550  -1.22596
 Alpha  occ. eigenvalues --   -1.22083  -1.10747  -1.09246  -1.07163  -1.04215
 Alpha  occ. eigenvalues --   -1.01215  -0.99317  -0.98741  -0.95518  -0.95179
 Alpha  occ. eigenvalues --   -0.94585  -0.92155  -0.87295  -0.85630  -0.82840
 Alpha  occ. eigenvalues --   -0.81250  -0.79489  -0.78670  -0.77183  -0.76865
 Alpha  occ. eigenvalues --   -0.72146  -0.71358  -0.71166  -0.68956  -0.67952
 Alpha  occ. eigenvalues --   -0.66652  -0.65795  -0.64506  -0.63885  -0.63681
 Alpha  occ. eigenvalues --   -0.62602  -0.62395  -0.61701  -0.61400  -0.61077
 Alpha  occ. eigenvalues --   -0.60884  -0.59907  -0.59331  -0.58665  -0.58463
 Alpha  occ. eigenvalues --   -0.58240  -0.57681  -0.56588  -0.56482  -0.56148
 Alpha  occ. eigenvalues --   -0.55359  -0.54816  -0.54725  -0.54567  -0.54168
 Alpha  occ. eigenvalues --   -0.53176  -0.52776  -0.52517  -0.52068  -0.51736
 Alpha  occ. eigenvalues --   -0.51024  -0.50460  -0.49764  -0.49342  -0.48781
 Alpha  occ. eigenvalues --   -0.48220  -0.47131  -0.46176  -0.45283  -0.42855
 Alpha  occ. eigenvalues --   -0.41924  -0.41509  -0.41068  -0.39285  -0.38835
 Alpha  occ. eigenvalues --   -0.38326  -0.38274  -0.32476
 Alpha virt. eigenvalues --    0.15330   0.18807   0.19668   0.20029   0.20215
 Alpha virt. eigenvalues --    0.21597   0.21877   0.23080   0.23604   0.23792
 Alpha virt. eigenvalues --    0.25472   0.25726   0.26427   0.26831   0.27478

 Mulliken atomic charges:
              1
     1  C   -0.279396
     2  N   -0.783132
     3  C    0.821671
     4  O   -0.628740
     5  C    0.102261
     6  C   -0.472570
     7  C   -0.333690
     8  C   -0.315732
     9  C   -0.370215
    10  C   -0.184940
    11  C   -0.182624
    12  C   -0.350499
    13  C   -0.314110
    14  C   -0.329189
    15  C    0.091588
    16  C   -0.509761
    17  N   -0.787634
    18  C    0.767333
    19  C   -0.595653
    20  O   -0.613726
    21  C    0.820435
    22  O   -0.640023
    23  N   -0.805769
    24  C   -0.275569
    25  N   -0.843000
    26  C    0.744613
    27  C   -0.588696
    28  O   -0.591840
    29  H    0.186838
    30  H    0.197811
    31  H    0.162609
    32  H    0.391461
    33  H    0.199291
    34  H    0.144226
    35  H    0.212306
    36  H    0.161359
    37  H    0.180609
    38  H    0.163895
    39  H    0.178513
    40  H    0.217260
    41  H    0.180043
    42  H    0.180805
    43  H    0.171933
    44  H    0.177838
    45  H    0.166328
    46  H    0.148112
    47  H    0.198516
    48  H    0.173300
    49  H    0.184702
    50  H    0.183507
    51  H    0.149040
    52  H    0.226674
    53  H    0.389675
    54  H    0.211246
    55  H    0.209217
    56  H    0.176124
    57  H    0.395646
    58  H    0.165875
    59  H    0.199175
    60  H    0.184820
    61  H    0.382632
    62  H    0.218592
    63  H    0.177237
    64  H    0.201390
 Sum of Mulliken atomic charges =   0.00000

 Dipole moment (field-independent basis, Debye):
    X=             -2.5415    Y=             -5.4569    Z=              5.1123  Tot=              7.8977
 Quadrupole moment (field-independent basis, Debye-Ang):
   XX=           -195.3289   YY=           -156.3662   ZZ=           -171.6451
   XY=             22.8775   XZ=             -7.5175   YZ=              8.9363

 Normal termination of Gaussian 09 at Thu Dec  5 17:25:03 2019.
