 Gaussian 09, Revision A.02,
 Gaussian 09:  EM64L-G09RevA.02 11-Jun-2009

 ---------------------------------
 #SP HF/6-31G* Geom=(ModRedundant)
 ---------------------------------

 ------------
 paramfit run
 ------------
 Symbolic Z-matrix:
 Charge =  0 Multiplicity = 1

                         Standard orientation:
 ---------------------------------------------------------------------
 Center     Atomic      Atomic             Coordinates (Angstroms)
 Number     Number       Type             X           Y           Z
 ---------------------------------------------------------------------
      1          6    20001001        3.903734   -0.925031    2.940144
      2          7    20001014        3.758328   -0.303931    1.640014
      3          6    20001002        4.471642   -0.767161    0.587060
      4          8    20001024        5.058688   -1.813259    0.615383
      5          6    90000001        4.383574    0.053179   -0.712429
      6          6    90000002        5.560673   -0.304569   -1.625826
      7          6    90000002        3.021881   -0.201906   -1.414090
      8          6    90000002        2.669397   -1.631378   -1.863536
      9          6    90000002        2.084552   -2.589553   -0.806893
     10          6    20001004        0.830024   -2.076821   -0.139403
     11          6    20001004       -0.422775   -2.386862   -0.431165
     12          6    90000002       -1.557771   -2.628062    0.534942
     13          6    90000002       -2.540086   -1.450087    0.665305
     14          6    90000002       -3.234706   -1.108631   -0.659770
     15          6    90000002       -4.377884   -0.061194   -0.633936
     16          6    90000002       -4.855231    0.141568   -2.081167
     17          7    20001014       -5.472782   -0.589187    0.168529
     18          6    20001002       -6.557483    0.175933    0.486448
     19          6    20001001       -7.408023   -0.361309    1.614615
     20          8    20001024       -6.822398    1.198460   -0.082235
     21          6    20001002       -3.853115    1.222634    0.048068
     22          8    20001024       -3.848548    1.313768    1.246235
     23          7    20001014       -3.315014    2.173496   -0.745839
     24          6    20001001       -2.851008    3.422221   -0.176991
     25          7    20001014        4.383432    1.492205   -0.411373
     26          6    20001002        5.399789    2.129902    0.236728
     27          6    20001001        5.378891    3.641001    0.135421
     28          8    20001024        6.243046    1.542177    0.852874
     29          1    20001035        4.895917   -0.774995    3.350035
     30          1    20001035        3.722612   -1.986841    2.859672
     31          1    20001035        3.172014   -0.494975    3.612446
     32          1    20001029        3.508249    0.656956    1.619026
     33          1    20001034        5.584201   -1.362798   -1.836849
     34          1    20001034        5.471699    0.241470   -2.560257
     35          1    20001034        6.496426   -0.043635   -1.153379
     36          1    20001034        3.030744    0.420828   -2.305910
     37          1    20001034        2.230278    0.185665   -0.780503
     38          1    20001034        1.933253   -1.531643   -2.655851
     39          1    20001034        3.536112   -2.102557   -2.315388
     40          1    20001034        2.826624   -2.803637   -0.048698
     41          1    20001034        1.885154   -3.531943   -1.304865
     42          1    20001033        0.991693   -1.382019    0.668822
     43          1    20001033       -0.677865   -2.477446   -1.475428
     44          1    20001034       -1.170436   -2.857206    1.520300
     45          1    20001034       -2.105519   -3.512310    0.211413
     46          1    20001034       -3.268935   -1.710389    1.427798
     47          1    20001034       -2.011771   -0.584054    1.041735
     48          1    20001034       -3.654824   -2.014694   -1.091145
     49          1    20001034       -2.488926   -0.749000   -1.358932
     50          1    20001034       -5.296615   -0.783357   -2.433694
     51          1    20001034       -4.025395    0.377098   -2.739406
     52          1    20001034       -5.601728    0.918602   -2.149716
     53          1    20001029       -5.209177   -1.246578    0.866427
     54          1    20001034       -8.395166    0.070368    1.549332
     55          1    20001034       -6.959529   -0.063983    2.557788
     56          1    20001034       -7.477373   -1.443504    1.593966
     57          1    20001029       -3.551045    2.173459   -1.709996
     58          1    20001035       -2.350106    3.989273   -0.950599
     59          1    20001035       -2.151956    3.221834    0.621631
     60          1    20001035       -3.669802    4.011056    0.223765
     61          1    20001029        3.814742    2.054881   -1.004277
     62          1    20001034        5.944791    4.053932    0.957746
     63          1    20001034        4.370637    4.039488    0.148915
     64          1    20001034        5.850512    3.942167   -0.794458
 ---------------------------------------------------------------------

 SCF Done:  E(RHF) =  -1295.58536976     A.U. after   14 cycles

 The electronic state is 1-A.
 Alpha  occ. eigenvalues --  -20.53643 -20.52317 -20.52080 -20.51862 -15.59616
 Alpha  occ. eigenvalues --  -15.58475 -15.57787 -15.57493 -11.35963 -11.34516
 Alpha  occ. eigenvalues --  -11.34153 -11.33870 -11.29053 -11.28893 -11.25739
 Alpha  occ. eigenvalues --  -11.24804 -11.24347 -11.24061 -11.23678 -11.22734
 Alpha  occ. eigenvalues --  -11.22728 -11.22590 -11.22392 -11.22189 -11.22116
 Alpha  occ. eigenvalues --  -11.21992 -11.21819 -11.20883  -1.40581  -1.39744
 Alpha  occ. eigenvalues --   -1.38719  -1.38475  -1.25439  -1.23837  -1.23179
 Alpha  occ. eigenvalues --   -1.22044  -1.10690  -1.09437  -1.07276  -1.04519
 Alpha  occ. eigenvalues --   -1.01289  -0.99432  -0.98935  -0.95662  -0.95463
 Alpha  occ. eigenvalues --   -0.95029  -0.91932  -0.87387  -0.85661  -0.82947
 Alpha  occ. eigenvalues --   -0.81228  -0.79879  -0.78717  -0.77319  -0.77152
 Alpha  occ. eigenvalues --   -0.73295  -0.71789  -0.71207  -0.69084  -0.68151
 Alpha  occ. eigenvalues --   -0.65985  -0.65459  -0.64820  -0.64297  -0.63790
 Alpha  occ. eigenvalues --   -0.62652  -0.62501  -0.61943  -0.61795  -0.61222
 Alpha  occ. eigenvalues --   -0.60866  -0.60091  -0.59280  -0.59157  -0.58934
 Alpha  occ. eigenvalues --   -0.58152  -0.57833  -0.56858  -0.56672  -0.56327
 Alpha  occ. eigenvalues --   -0.55671  -0.55180  -0.54726  -0.54538  -0.54227
 Alpha  occ. eigenvalues --   -0.53609  -0.52804  -0.52496  -0.52265  -0.51952
 Alpha  occ. eigenvalues --   -0.51045  -0.50888  -0.50096  -0.49484  -0.48547
 Alpha  occ. eigenvalues --   -0.48300  -0.47160  -0.46551  -0.45926  -0.42871
 Alpha  occ. eigenvalues --   -0.41945  -0.41892  -0.41347  -0.39291  -0.39282
 Alpha  occ. eigenvalues --   -0.38751  -0.38291  -0.31237
 Alpha virt. eigenvalues --    0.14343   0.18801   0.19311   0.19976   0.20131
 Alpha virt. eigenvalues --    0.21252   0.21389   0.22817   0.23716   0.24010
 Alpha virt. eigenvalues --    0.25371   0.25967   0.26126   0.26896   0.27622

 Mulliken atomic charges:
              1
     1  C   -0.279911
     2  N   -0.782691
     3  C    0.821444
     4  O   -0.629384
     5  C    0.102620
     6  C   -0.472363
     7  C   -0.333826
     8  C   -0.314370
     9  C   -0.356259
    10  C   -0.189832
    11  C   -0.186369
    12  C   -0.338401
    13  C   -0.313157
    14  C   -0.328254
    15  C    0.091511
    16  C   -0.509601
    17  N   -0.787290
    18  C    0.767021
    19  C   -0.595707
    20  O   -0.614510
    21  C    0.819998
    22  O   -0.639043
    23  N   -0.807211
    24  C   -0.274257
    25  N   -0.842712
    26  C    0.744804
    27  C   -0.588745
    28  O   -0.591629
    29  H    0.186588
    30  H    0.197582
    31  H    0.164556
    32  H    0.391910
    33  H    0.198621
    34  H    0.143762
    35  H    0.212572
    36  H    0.160337
    37  H    0.180576
    38  H    0.160895
    39  H    0.176278
    40  H    0.218468
    41  H    0.177531
    42  H    0.177730
    43  H    0.164204
    44  H    0.183276
    45  H    0.169515
    46  H    0.148337
    47  H    0.191347
    48  H    0.175565
    49  H    0.180318
    50  H    0.185496
    51  H    0.147050
    52  H    0.226556
    53  H    0.390699
    54  H    0.211545
    55  H    0.209089
    56  H    0.177504
    57  H    0.396029
    58  H    0.162400
    59  H    0.194797
    60  H    0.187462
    61  H    0.382175
    62  H    0.219105
    63  H    0.177320
    64  H    0.200925
 Sum of Mulliken atomic charges =   0.00000

 Dipole moment (field-independent basis, Debye):
    X=             -1.8254    Y=              2.2369    Z=             -3.1613  Tot=              4.2813
 Quadrupole moment (field-independent basis, Debye-Ang):
   XX=           -225.5392   YY=           -163.1042   ZZ=           -162.9502
   XY=             36.7435   XZ=            -10.6369   YZ=             -7.6894

 Normal termination of Gaussian 09 at Thu Dec  5 18:53:35 2019.
