 Gaussian 09, Revision A.02,
 Gaussian 09:  EM64L-G09RevA.02 11-Jun-2009

 ---------------------------------
 #SP HF/6-31G* Geom=(ModRedundant)
 ---------------------------------

 ------------
 paramfit run
 ------------
 Symbolic Z-matrix:
 Charge =  0 Multiplicity = 1

                         Standard orientation:
 ---------------------------------------------------------------------
 Center     Atomic      Atomic             Coordinates (Angstroms)
 Number     Number       Type             X           Y           Z
 ---------------------------------------------------------------------
      1          6    20001001        4.101260   -1.260478    2.809630
      2          7    20001014        3.848547   -0.494689    1.606738
      3          6    20001002        4.494577   -0.807540    0.459184
      4          8    20001024        5.105798   -1.830807    0.321054
      5          6    90000001        4.294548    0.157705   -0.723050
      6          6    90000002        5.410685   -0.052507   -1.751589
      7          6    90000002        2.892042   -0.054891   -1.355017
      8          6    90000002        2.540750   -1.431408   -1.947832
      9          6    90000002        2.055442   -2.525700   -0.976422
     10          6    20001004        0.840870   -2.134978   -0.167454
     11          6    20001004       -0.422298   -2.447239   -0.407571
     12          6    90000002       -1.529766   -2.633739    0.601630
     13          6    90000002       -2.499107   -1.442506    0.706062
     14          6    90000002       -3.230346   -1.156505   -0.612426
     15          6    90000002       -4.364541   -0.099087   -0.601583
     16          6    90000002       -4.883263    0.040848   -2.041999
     17          7    20001014       -5.438905   -0.579962    0.256339
     18          6    20001002       -6.508024    0.208414    0.570197
     19          6    20001001       -7.328515   -0.268802    1.746575
     20          8    20001024       -6.782251    1.205887   -0.037248
     21          6    20001002       -3.810307    1.210219    0.004443
     22          8    20001024       -3.769405    1.356480    1.196443
     23          7    20001014       -3.289125    2.118733   -0.848172
     24          6    20001001       -2.799253    3.388285   -0.351718
     25          7    20001014        4.283322    1.550267   -0.251802
     26          6    20001002        5.328914    2.138163    0.396881
     27          6    20001001        5.266388    3.649236    0.479741
     28          8    20001024        6.227493    1.508234    0.878424
     29          1    20001035        5.116701   -1.129134    3.165407
     30          1    20001035        3.939031   -2.310429    2.614672
     31          1    20001035        3.410232   -0.936068    3.577478
     32          1    20001029        3.575798    0.453653    1.718719
     33          1    20001034        5.443043   -1.077064   -2.089477
     34          1    20001034        5.242273    0.597259   -2.605216
     35          1    20001034        6.371835    0.179737   -1.316641
     36          1    20001034        2.822510    0.669002   -2.163944
     37          1    20001034        2.139482    0.230068   -0.626503
     38          1    20001034        1.747405   -1.261604   -2.669905
     39          1    20001034        3.383191   -1.818515   -2.511583
     40          1    20001034        2.854845   -2.804770   -0.302302
     41          1    20001034        1.842220   -3.408278   -1.569234
     42          1    20001033        1.044439   -1.536028    0.705433
     43          1    20001033       -0.709020   -2.583672   -1.438560
     44          1    20001034       -1.114958   -2.820550    1.584739
     45          1    20001034       -2.093369   -3.527172    0.335689
     46          1    20001034       -3.206822   -1.661010    1.500901
     47          1    20001034       -1.953486   -0.564659    1.026240
     48          1    20001034       -3.669749   -2.077813   -0.988790
     49          1    20001034       -2.503095   -0.836006   -1.349131
     50          1    20001034       -5.341712   -0.895479   -2.338134
     51          1    20001034       -4.071687    0.238539   -2.734562
     52          1    20001034       -5.625755    0.820357   -2.124523
     53          1    20001029       -5.159465   -1.206730    0.975914
     54          1    20001034       -8.313975    0.167975    1.690398
     55          1    20001034       -6.849975    0.067800    2.661355
     56          1    20001034       -7.406378   -1.350153    1.778170
     57          1    20001029       -3.553749    2.076277   -1.803933
     58          1    20001035       -2.317461    3.914672   -1.165176
     59          1    20001035       -2.078222    3.218876    0.434438
     60          1    20001035       -3.601416    4.002076    0.045206
     61          1    20001029        3.660769    2.161150   -0.732216
     62          1    20001034        5.880465    3.979379    1.304901
     63          1    20001034        4.252912    4.011671    0.610347
     64          1    20001034        5.662874    4.072923   -0.437369
 ---------------------------------------------------------------------

 SCF Done:  E(RHF) =  -1295.60176243     A.U. after   14 cycles

 The electronic state is 1-A.
 Alpha  occ. eigenvalues --  -20.53633 -20.52341 -20.52115 -20.51861 -15.59605
 Alpha  occ. eigenvalues --  -15.58505 -15.57814 -15.57496 -11.35952 -11.34540
 Alpha  occ. eigenvalues --  -11.34185 -11.33868 -11.29049 -11.28917 -11.25781
 Alpha  occ. eigenvalues --  -11.24818 -11.24328 -11.24054 -11.23698 -11.22758
 Alpha  occ. eigenvalues --  -11.22736 -11.22635 -11.22464 -11.22206 -11.22129
 Alpha  occ. eigenvalues --  -11.22005 -11.21804 -11.20884  -1.40572  -1.39774
 Alpha  occ. eigenvalues --   -1.38717  -1.38504  -1.25430  -1.23864  -1.23210
 Alpha  occ. eigenvalues --   -1.22046  -1.10712  -1.09453  -1.07289  -1.04538
 Alpha  occ. eigenvalues --   -1.01295  -0.99440  -0.98952  -0.95691  -0.95471
 Alpha  occ. eigenvalues --   -0.95050  -0.91928  -0.87399  -0.85658  -0.82959
 Alpha  occ. eigenvalues --   -0.81212  -0.79908  -0.78699  -0.77347  -0.77152
 Alpha  occ. eigenvalues --   -0.73484  -0.71824  -0.71200  -0.69082  -0.68173
 Alpha  occ. eigenvalues --   -0.65979  -0.65489  -0.64842  -0.64311  -0.63758
 Alpha  occ. eigenvalues --   -0.62659  -0.62489  -0.61955  -0.61819  -0.61224
 Alpha  occ. eigenvalues --   -0.60854  -0.60112  -0.59298  -0.59164  -0.58961
 Alpha  occ. eigenvalues --   -0.58155  -0.57861  -0.56826  -0.56663  -0.56353
 Alpha  occ. eigenvalues --   -0.55711  -0.55206  -0.54784  -0.54543  -0.54226
 Alpha  occ. eigenvalues --   -0.53594  -0.52821  -0.52482  -0.52311  -0.51820
 Alpha  occ. eigenvalues --   -0.51041  -0.50846  -0.50123  -0.49493  -0.48580
 Alpha  occ. eigenvalues --   -0.48346  -0.47111  -0.46460  -0.45758  -0.42864
 Alpha  occ. eigenvalues --   -0.41945  -0.41919  -0.41371  -0.39311  -0.39286
 Alpha  occ. eigenvalues --   -0.38782  -0.38294  -0.32511
 Alpha virt. eigenvalues --    0.15512   0.18813   0.19285   0.19987   0.20137
 Alpha virt. eigenvalues --    0.21232   0.21425   0.22800   0.23703   0.23999
 Alpha virt. eigenvalues --    0.25331   0.25942   0.26074   0.26903   0.27581

 Mulliken atomic charges:
              1
     1  C   -0.279903
     2  N   -0.782838
     3  C    0.821467
     4  O   -0.629281
     5  C    0.102600
     6  C   -0.472434
     7  C   -0.334264
     8  C   -0.313210
     9  C   -0.359996
    10  C   -0.185050
    11  C   -0.180891
    12  C   -0.341897
    13  C   -0.312202
    14  C   -0.328595
    15  C    0.091253
    16  C   -0.509676
    17  N   -0.787226
    18  C    0.767024
    19  C   -0.595722
    20  O   -0.614442
    21  C    0.820076
    22  O   -0.639332
    23  N   -0.807102
    24  C   -0.274176
    25  N   -0.842666
    26  C    0.744767
    27  C   -0.588817
    28  O   -0.591736
    29  H    0.186693
    30  H    0.197611
    31  H    0.164214
    32  H    0.392092
    33  H    0.198505
    34  H    0.143726
    35  H    0.212640
    36  H    0.160288
    37  H    0.181735
    38  H    0.160805
    39  H    0.177005
    40  H    0.217072
    41  H    0.176251
    42  H    0.176532
    43  H    0.163548
    44  H    0.181654
    45  H    0.167963
    46  H    0.149135
    47  H    0.191110
    48  H    0.175796
    49  H    0.181174
    50  H    0.185616
    51  H    0.147316
    52  H    0.226570
    53  H    0.390615
    54  H    0.211625
    55  H    0.208955
    56  H    0.177566
    57  H    0.396235
    58  H    0.162619
    59  H    0.194177
    60  H    0.187522
    61  H    0.382308
    62  H    0.219067
    63  H    0.177687
    64  H    0.200843
 Sum of Mulliken atomic charges =   0.00000

 Dipole moment (field-independent basis, Debye):
    X=             -2.1063    Y=              2.2290    Z=             -2.3448  Tot=              3.8605
 Quadrupole moment (field-independent basis, Debye-Ang):
   XX=           -227.1160   YY=           -163.5640   ZZ=           -161.5984
   XY=             36.6583   XZ=             -6.5608   YZ=             -8.2843

 Normal termination of Gaussian 09 at Thu Dec  5 18:59:09 2019.
