 Gaussian 09, Revision A.02,
 Gaussian 09:  EM64L-G09RevA.02 11-Jun-2009

 ---------------------------------
 #SP HF/6-31G* Geom=(ModRedundant)
 ---------------------------------

 ------------
 paramfit run
 ------------
 Symbolic Z-matrix:
 Charge =  0 Multiplicity = 1

                         Standard orientation:
 ---------------------------------------------------------------------
 Center     Atomic      Atomic             Coordinates (Angstroms)
 Number     Number       Type             X           Y           Z
 ---------------------------------------------------------------------
      1          6    20001001       -4.879945   -2.260095   -1.829474
      2          7    20001014       -4.280023   -1.100630   -1.202592
      3          6    20001002       -4.555003   -0.814968    0.091584
      4          8    20001024       -5.097779   -1.595613    0.823522
      5          6    90000001       -4.011440    0.521872    0.627105
      6          6    90000002       -4.770591    0.911531    1.899778
      7          6    90000002       -2.484443    0.411920    0.887478
      8          6    90000002       -1.973112   -0.621590    1.907299
      9          6    90000002       -1.799709   -2.075889    1.426068
     10          6    20001004       -0.881100   -2.224203    0.235925
     11          6    20001004        0.396108   -2.569841    0.241439
     12          6    90000002        1.366124   -2.518602   -0.914501
     13          6    90000002        2.336878   -1.324612   -0.874632
     14          6    90000002        3.231262   -1.329737    0.372350
     15          6    90000002        4.374707   -0.285360    0.452680
     16          6    90000002        5.070684   -0.461851    1.812062
     17          7    20001014        5.325211   -0.554919   -0.617560
     18          6    20001002        6.361512    0.293316   -0.881446
     19          6    20001001        7.020694    0.095207   -2.227194
     20          8    20001024        6.727412    1.134692   -0.108565
     21          6    20001002        3.773863    1.120122    0.223918
     22          8    20001024        3.588053    1.525425   -0.891937
     23          7    20001014        3.379421    1.813143    1.313927
     24          6    20001001        2.855292    3.156278    1.174365
     25          7    20001014       -4.140490    1.573182   -0.392465
     26          6    20001002       -5.331590    1.966253   -0.927673
     27          6    20001001       -5.295915    3.280289   -1.680106
     28          8    20001024       -6.333103    1.316487   -0.823202
     29          1    20001035       -5.955210   -2.158040   -1.920798
     30          1    20001035       -4.667470   -3.142495   -1.243857
     31          1    20001035       -4.448890   -2.381897   -2.815228
     32          1    20001029       -4.052596   -0.331813   -1.788666
     33          1    20001034       -4.701278    0.137509    2.648789
     34          1    20001034       -4.355241    1.831265    2.300793
     35          1    20001034       -5.817570    1.063831    1.681681
     36          1    20001034       -2.176766    1.392454    1.243999
     37          1    20001034       -1.982950    0.263114   -0.063648
     38          1    20001034       -1.000606   -0.270244    2.239574
     39          1    20001034       -2.609534   -0.621871    2.786128
     40          1    20001034       -2.763761   -2.504437    1.184587
     41          1    20001034       -1.419961   -2.647668    2.265529
     42          1    20001033       -1.335195   -2.025978   -0.721477
     43          1    20001033        0.805993   -2.927712    1.172935
     44          1    20001034        0.829129   -2.487763   -1.854794
     45          1    20001034        1.941750   -3.443345   -0.924384
     46          1    20001034        2.936313   -1.355656   -1.780220
     47          1    20001034        1.772073   -0.402931   -0.922899
     48          1    20001034        3.696859   -2.307206    0.478698
     49          1    20001034        2.607118   -1.186574    1.246591
     50          1    20001034        5.544942   -1.436084    1.835105
     51          1    20001034        4.355131   -0.429515    2.627119
     52          1    20001034        5.831969    0.287189    1.970561
     53          1    20001029        4.947081   -1.010051   -1.416674
     54          1    20001034        8.013417    0.518083   -2.200018
     55          1    20001034        6.438632    0.620854   -2.978210
     56          1    20001034        7.074017   -0.951733   -2.505503
     57          1    20001029        3.759786    1.563319    2.196095
     58          1    20001035        2.488001    3.485620    2.137459
     59          1    20001035        2.039259    3.157744    0.466753
     60          1    20001035        3.613208    3.850057    0.825096
     61          1    20001029       -3.402816    2.241645   -0.415732
     62          1    20001034       -6.127780    3.311092   -2.368601
     63          1    20001034       -4.367201    3.417762   -2.222455
     64          1    20001034       -5.401004    4.097876   -0.974196
 ---------------------------------------------------------------------

 SCF Done:  E(RHF) =  -1295.62235601     A.U. after   14 cycles

 The electronic state is 1-A.
 Alpha  occ. eigenvalues --  -20.53582 -20.52383 -20.52158 -20.51832 -15.59543
 Alpha  occ. eigenvalues --  -15.58508 -15.57864 -15.57490 -11.35895 -11.34584
 Alpha  occ. eigenvalues --  -11.34220 -11.33839 -11.29008 -11.28944 -11.25768
 Alpha  occ. eigenvalues --  -11.24846 -11.24251 -11.23991 -11.23716 -11.22827
 Alpha  occ. eigenvalues --  -11.22815 -11.22792 -11.22727 -11.22299 -11.22118
 Alpha  occ. eigenvalues --  -11.22101 -11.21802 -11.20867  -1.40523  -1.39816
 Alpha  occ. eigenvalues --   -1.38687  -1.38546  -1.25377  -1.23909  -1.23218
 Alpha  occ. eigenvalues --   -1.22036  -1.10781  -1.09472  -1.07312  -1.04569
 Alpha  occ. eigenvalues --   -1.01310  -0.99448  -0.98976  -0.95700  -0.95478
 Alpha  occ. eigenvalues --   -0.95059  -0.91934  -0.87414  -0.85630  -0.82967
 Alpha  occ. eigenvalues --   -0.81153  -0.79940  -0.78627  -0.77371  -0.77139
 Alpha  occ. eigenvalues --   -0.73926  -0.71871  -0.71153  -0.69038  -0.68205
 Alpha  occ. eigenvalues --   -0.65902  -0.65519  -0.64827  -0.64329  -0.63661
 Alpha  occ. eigenvalues --   -0.62586  -0.62427  -0.61976  -0.61840  -0.61191
 Alpha  occ. eigenvalues --   -0.60904  -0.60162  -0.59264  -0.59231  -0.58964
 Alpha  occ. eigenvalues --   -0.58152  -0.57882  -0.56755  -0.56572  -0.56458
 Alpha  occ. eigenvalues --   -0.55767  -0.55240  -0.54951  -0.54546  -0.54218
 Alpha  occ. eigenvalues --   -0.53540  -0.52925  -0.52573  -0.52342  -0.51680
 Alpha  occ. eigenvalues --   -0.51006  -0.50745  -0.50159  -0.49372  -0.48734
 Alpha  occ. eigenvalues --   -0.48387  -0.47013  -0.46456  -0.45135  -0.42827
 Alpha  occ. eigenvalues --   -0.41964  -0.41904  -0.41411  -0.39340  -0.39247
 Alpha  occ. eigenvalues --   -0.38804  -0.38284  -0.34402
 Alpha virt. eigenvalues --    0.17358   0.18870   0.19230   0.20035   0.20121
 Alpha virt. eigenvalues --    0.21172   0.21502   0.22803   0.23486   0.24122
 Alpha virt. eigenvalues --    0.25086   0.25510   0.26144   0.26915   0.27126

 Mulliken atomic charges:
              1
     1  C   -0.279797
     2  N   -0.783204
     3  C    0.821826
     4  O   -0.628962
     5  C    0.102273
     6  C   -0.472737
     7  C   -0.335016
     8  C   -0.309990
     9  C   -0.365044
    10  C   -0.177163
    11  C   -0.173498
    12  C   -0.345970
    13  C   -0.308456
    14  C   -0.329190
    15  C    0.090221
    16  C   -0.509907
    17  N   -0.786989
    18  C    0.767080
    19  C   -0.595750
    20  O   -0.614053
    21  C    0.820253
    22  O   -0.640731
    23  N   -0.806666
    24  C   -0.274037
    25  N   -0.842850
    26  C    0.744382
    27  C   -0.588920
    28  O   -0.592180
    29  H    0.186868
    30  H    0.197814
    31  H    0.163124
    32  H    0.392064
    33  H    0.197922
    34  H    0.143799
    35  H    0.212783
    36  H    0.161216
    37  H    0.184407
    38  H    0.162851
    39  H    0.179662
    40  H    0.210261
    41  H    0.169612
    42  H    0.176940
    43  H    0.166499
    44  H    0.173832
    45  H    0.160089
    46  H    0.152097
    47  H    0.191090
    48  H    0.176389
    49  H    0.183983
    50  H    0.185739
    51  H    0.148517
    52  H    0.226649
    53  H    0.390053
    54  H    0.211861
    55  H    0.208387
    56  H    0.177595
    57  H    0.396907
    58  H    0.164908
    59  H    0.192368
    60  H    0.187104
    61  H    0.383378
    62  H    0.218546
    63  H    0.178752
    64  H    0.201010
 Sum of Mulliken atomic charges =   0.00000

 Dipole moment (field-independent basis, Debye):
    X=              2.3971    Y=              1.4556    Z=             -0.9875  Tot=              2.9731
 Quadrupole moment (field-independent basis, Debye-Ang):
   XX=           -228.0588   YY=           -164.7648   ZZ=           -158.0277
   XY=            -31.3582   XZ=              9.7517   YZ=              8.7480

 Normal termination of Gaussian 09 at Thu Dec  5 17:13:23 2019.
