 Gaussian 09, Revision A.02,
 Gaussian 09:  EM64L-G09RevA.02 11-Jun-2009

 ---------------------------------
 #SP HF/6-31G* Geom=(ModRedundant)
 ---------------------------------

 ------------
 paramfit run
 ------------
 Symbolic Z-matrix:
 Charge =  0 Multiplicity = 1

                         Standard orientation:
 ---------------------------------------------------------------------
 Center     Atomic      Atomic             Coordinates (Angstroms)
 Number     Number       Type             X           Y           Z
 ---------------------------------------------------------------------
      1          6    20001001       -3.488629    2.854261   -0.215603
      2          7    20001014       -3.936855    1.528205    0.155768
      3          6    20001002       -4.314271    0.650163   -0.802724
      4          8    20001024       -4.088818    0.829876   -1.967465
      5          6    90000001       -4.933158   -0.671663   -0.313704
      6          6    90000002       -5.712771   -1.327567   -1.458184
      7          6    90000002       -3.823568   -1.612166    0.230233
      8          6    90000002       -2.699353   -2.067407   -0.717677
      9          6    90000002       -1.511656   -1.108033   -0.931250
     10          6    20001004       -0.802844   -0.713942    0.343330
     11          6    20001004        0.310247   -1.229496    0.839303
     12          6    90000002        1.364750   -2.019007    0.101432
     13          6    90000002        2.632713   -1.216497   -0.241800
     14          6    90000002        3.355507   -0.689077    1.004920
     15          6    90000002        4.739896   -0.016929    0.814310
     16          6    90000002        5.212561    0.472684    2.192830
     17          7    20001014        5.673445   -1.013310    0.307118
     18          6    20001002        6.933491   -0.672275   -0.091674
     19          6    20001001        7.638765   -1.710885   -0.933508
     20          8    20001024        7.449002    0.370884    0.200227
     21          6    20001002        4.602257    1.100690   -0.244326
     22          8    20001024        4.656947    0.836299   -1.415238
     23          7    20001014        4.319230    2.345052    0.197759
     24          6    20001001        4.227302    3.448040   -0.736677
     25          7    20001014       -5.814146   -0.430128    0.838230
     26          6    20001002       -6.912370    0.377153    0.794933
     27          6    20001001       -7.873791    0.217445    1.954365
     28          8    20001024       -7.100817    1.165490   -0.087763
     29          1    20001035       -4.286891    3.441484   -0.654803
     30          1    20001035       -2.683256    2.780098   -0.931561
     31          1    20001035       -3.123535    3.356729    0.671294
     32          1    20001029       -4.362938    1.423687    1.046730
     33          1    20001034       -5.081410   -1.490515   -2.318279
     34          1    20001034       -6.110327   -2.281359   -1.124316
     35          1    20001034       -6.531165   -0.693992   -1.767606
     36          1    20001034       -4.339081   -2.508211    0.568714
     37          1    20001034       -3.390697   -1.157599    1.115824
     38          1    20001034       -2.302714   -2.989696   -0.303335
     39          1    20001034       -3.113232   -2.326196   -1.686751
     40          1    20001034       -1.844055   -0.213797   -1.442345
     41          1    20001034       -0.820714   -1.599570   -1.607138
     42          1    20001033       -1.268375    0.083807    0.899199
     43          1    20001033        0.501178   -1.072410    1.889365
     44          1    20001034        0.958288   -2.420787   -0.818800
     45          1    20001034        1.643014   -2.878222    0.710458
     46          1    20001034        3.285403   -1.862245   -0.822645
     47          1    20001034        2.369732   -0.394410   -0.894368
     48          1    20001034        3.501962   -1.504910    1.709548
     49          1    20001034        2.715247    0.034115    1.496254
     50          1    20001034        5.376632   -0.388905    2.829481
     51          1    20001034        4.458987    1.090503    2.670121
     52          1    20001034        6.139319    1.022410    2.124566
     53          1    20001029        5.261796   -1.757512   -0.208073
     54          1    20001034        8.703632   -1.541275   -0.885015
     55          1    20001034        7.314833   -1.599104   -1.963897
     56          1    20001034        7.411802   -2.721064   -0.610383
     57          1    20001029        4.518647    2.567116    1.144454
     58          1    20001035        3.876702    4.322908   -0.205072
     59          1    20001035        3.523334    3.205560   -1.519145
     60          1    20001035        5.186127    3.668965   -1.194498
     61          1    20001029       -5.815356   -1.141920    1.534576
     62          1    20001034       -8.464654    1.117296    2.044488
     63          1    20001034       -7.360679    0.021855    2.889250
     64          1    20001034       -8.540255   -0.614907    1.752330
 ---------------------------------------------------------------------

 SCF Done:  E(RHF) =  -1295.61325596     A.U. after   14 cycles

 The electronic state is 1-A.
 Alpha  occ. eigenvalues --  -20.53657 -20.52050 -20.51837 -20.51604 -15.59615
 Alpha  occ. eigenvalues --  -15.57929 -15.57533 -15.57525 -11.35976 -11.34256
 Alpha  occ. eigenvalues --  -11.33853 -11.33691 -11.29027 -11.28570 -11.25027
 Alpha  occ. eigenvalues --  -11.24900 -11.24370 -11.23994 -11.23371 -11.22768
 Alpha  occ. eigenvalues --  -11.22508 -11.22500 -11.22385 -11.22290 -11.22091
 Alpha  occ. eigenvalues --  -11.21823 -11.21586 -11.20863  -1.40592  -1.39374
 Alpha  occ. eigenvalues --   -1.38696  -1.38098  -1.25437  -1.23552  -1.22640
 Alpha  occ. eigenvalues --   -1.22080  -1.10744  -1.09271  -1.07198  -1.04247
 Alpha  occ. eigenvalues --   -1.01248  -0.99330  -0.98741  -0.95520  -0.95139
 Alpha  occ. eigenvalues --   -0.94594  -0.92172  -0.87243  -0.85724  -0.82828
 Alpha  occ. eigenvalues --   -0.81382  -0.79506  -0.78814  -0.77180  -0.76893
 Alpha  occ. eigenvalues --   -0.71857  -0.71274  -0.71058  -0.68943  -0.67977
 Alpha  occ. eigenvalues --   -0.66563  -0.65877  -0.64571  -0.64005  -0.63754
 Alpha  occ. eigenvalues --   -0.62580  -0.62271  -0.61856  -0.61442  -0.61200
 Alpha  occ. eigenvalues --   -0.60957  -0.59903  -0.59329  -0.58763  -0.58435
 Alpha  occ. eigenvalues --   -0.58226  -0.57826  -0.56680  -0.56405  -0.56222
 Alpha  occ. eigenvalues --   -0.55530  -0.54892  -0.54757  -0.54553  -0.53935
 Alpha  occ. eigenvalues --   -0.53084  -0.52857  -0.52478  -0.52208  -0.51539
 Alpha  occ. eigenvalues --   -0.51030  -0.50386  -0.49782  -0.49152  -0.48554
 Alpha  occ. eigenvalues --   -0.48324  -0.46943  -0.46290  -0.44864  -0.42882
 Alpha  occ. eigenvalues --   -0.41937  -0.41504  -0.41065  -0.39286  -0.38853
 Alpha  occ. eigenvalues --   -0.38316  -0.38289  -0.33740
 Alpha virt. eigenvalues --    0.16984   0.18790   0.19622   0.19957   0.20198
 Alpha virt. eigenvalues --    0.21547   0.21840   0.23164   0.23199   0.24127
 Alpha virt. eigenvalues --    0.25216   0.25692   0.26531   0.27027   0.27693

 Mulliken atomic charges:
              1
     1  C   -0.279815
     2  N   -0.783483
     3  C    0.822104
     4  O   -0.627876
     5  C    0.102330
     6  C   -0.472886
     7  C   -0.334560
     8  C   -0.309824
     9  C   -0.371507
    10  C   -0.180024
    11  C   -0.178224
    12  C   -0.351648
    13  C   -0.308507
    14  C   -0.328681
    15  C    0.090698
    16  C   -0.509456
    17  N   -0.787546
    18  C    0.767270
    19  C   -0.595717
    20  O   -0.614004
    21  C    0.820629
    22  O   -0.638987
    23  N   -0.806236
    24  C   -0.275511
    25  N   -0.843083
    26  C    0.744540
    27  C   -0.588656
    28  O   -0.591701
    29  H    0.187057
    30  H    0.198712
    31  H    0.161912
    32  H    0.391175
    33  H    0.198753
    34  H    0.144042
    35  H    0.212595
    36  H    0.161187
    37  H    0.182356
    38  H    0.165052
    39  H    0.181013
    40  H    0.209371
    41  H    0.172761
    42  H    0.182457
    43  H    0.170293
    44  H    0.177471
    45  H    0.154885
    46  H    0.152910
    47  H    0.199697
    48  H    0.173132
    49  H    0.184503
    50  H    0.183600
    51  H    0.147839
    52  H    0.226569
    53  H    0.389848
    54  H    0.211136
    55  H    0.209641
    56  H    0.176417
    57  H    0.395152
    58  H    0.164263
    59  H    0.199672
    60  H    0.185278
    61  H    0.382521
    62  H    0.218636
    63  H    0.177084
    64  H    0.201368
 Sum of Mulliken atomic charges =   0.00000

 Dipole moment (field-independent basis, Debye):
    X=             -2.6113    Y=             -3.4753    Z=              7.0802  Tot=              8.3082
 Quadrupole moment (field-independent basis, Debye-Ang):
   XX=           -196.1353   YY=           -155.7251   ZZ=           -174.3635
   XY=              6.2346   XZ=            -24.0332   YZ=              9.0880

 Normal termination of Gaussian 09 at Thu Dec  5 17:51:33 2019.
