 Gaussian 09, Revision A.02,
 Gaussian 09:  EM64L-G09RevA.02 11-Jun-2009

 ---------------------------------
 #SP HF/6-31G* Geom=(ModRedundant)
 ---------------------------------

 ------------
 paramfit run
 ------------
 Symbolic Z-matrix:
 Charge =  0 Multiplicity = 1

                         Standard orientation:
 ---------------------------------------------------------------------
 Center     Atomic      Atomic             Coordinates (Angstroms)
 Number     Number       Type             X           Y           Z
 ---------------------------------------------------------------------
      1          6    20001001        4.508558   -1.830860    2.399838
      2          7    20001014        4.058253   -0.831052    1.453871
      3          6    20001002        4.532939   -0.838829    0.186305
      4          8    20001024        5.143293   -1.766360   -0.268557
      5          6    90000001        4.132545    0.353492   -0.701073
      6          6    90000002        5.086998    0.447021   -1.896110
      7          6    90000002        2.657235    0.204498   -1.162443
      8          6    90000002        2.257430   -1.022242   -2.002027
      9          6    90000002        1.952267   -2.333850   -1.251562
     10          6    20001004        0.862847   -2.208405   -0.212473
     11          6    20001004       -0.413371   -2.533981   -0.339067
     12          6    90000002       -1.455236   -2.605337    0.751429
     13          6    90000002       -2.414450   -1.402049    0.791072
     14          6    90000002       -3.227003   -1.249418   -0.501745
     15          6    90000002       -4.356827   -0.187671   -0.530673
     16          6    90000002       -4.965173   -0.194715   -1.942522
     17          7    20001014       -5.375592   -0.567835    0.438412
     18          6    20001002       -6.421723    0.257455    0.734323
     19          6    20001001       -7.167030   -0.087850    2.003215
     20          8    20001024       -6.732368    1.188231    0.044180
     21          6    20001002       -3.763709    1.173291   -0.100883
     22          8    20001024       -3.647511    1.442827    1.064353
     23          7    20001014       -3.296111    1.983693   -1.074835
     24          6    20001001       -2.774190    3.294194   -0.745613
     25          7    20001014        4.155406    1.601388    0.075885
     26          6    20001002        5.270578    2.090228    0.689971
     27          6    20001001        5.181381    3.537540    1.127521
     28          8    20001024        6.247486    1.423326    0.882407
     29          1    20001035        5.562046   -1.722087    2.630666
     30          1    20001035        4.346660   -2.817993    1.992307
     31          1    20001035        3.932163   -1.729260    3.310770
     32          1    20001029        3.780480    0.049791    1.818895
     33          1    20001034        5.095320   -0.471635   -2.462620
     34          1    20001034        4.775437    1.260601   -2.544380
     35          1    20001034        6.096039    0.632890   -1.558152
     36          1    20001034        2.448148    1.086068   -1.764387
     37          1    20001034        2.015166    0.272871   -0.289887
     38          1    20001034        1.360593   -0.742521   -2.547057
     39          1    20001034        3.015729   -1.221575   -2.752110
     40          1    20001034        2.850782   -2.708709   -0.778788
     41          1    20001034        1.675907   -3.071899   -1.996372
     42          1    20001033        1.179135   -1.809696    0.737845
     43          1    20001033       -0.764729   -2.774988   -1.330139
     44          1    20001034       -0.979502   -2.691812    1.720793
     45          1    20001034       -2.035694   -3.517141    0.616249
     46          1    20001034       -3.070921   -1.530781    1.647138
     47          1    20001034       -1.848538   -0.499941    0.982841
     48          1    20001034       -3.690511   -2.201456   -0.751380
     49          1    20001034       -2.547230   -1.013341   -1.312009
     50          1    20001034       -5.442649   -1.153165   -2.109762
     51          1    20001034       -4.198626   -0.076833   -2.701395
     52          1    20001034       -5.710338    0.577797   -2.059546
     53          1    20001029       -5.052172   -1.118281    1.200724
     54          1    20001034       -8.153482    0.348490    1.963416
     55          1    20001034       -6.631295    0.338574    2.845993
     56          1    20001034       -7.244206   -1.159346    2.152619
     57          1    20001029       -3.620545    1.843822   -2.002461
     58          1    20001035       -2.343951    3.728968   -1.638242
     59          1    20001035       -2.005242    3.202038    0.007282
     60          1    20001035       -3.548892    3.952409   -0.365689
     61          1    20001029        3.451979    2.266076   -0.158481
     62          1    20001034        5.903320    3.710159    1.912364
     63          1    20001034        4.189748    3.799896    1.478782
     64          1    20001034        5.424572    4.179390    0.286873
 ---------------------------------------------------------------------

 SCF Done:  E(RHF) =  -1295.62114156     A.U. after   14 cycles

 The electronic state is 1-A.
 Alpha  occ. eigenvalues --  -20.53607 -20.52374 -20.52158 -20.51851 -15.59575
 Alpha  occ. eigenvalues --  -15.58532 -15.57852 -15.57497 -11.35923 -11.34574
 Alpha  occ. eigenvalues --  -11.34223 -11.33858 -11.29033 -11.28946 -11.25815
 Alpha  occ. eigenvalues --  -11.24838 -11.24285 -11.24030 -11.23721 -11.22796
 Alpha  occ. eigenvalues --  -11.22776 -11.22718 -11.22602 -11.22249 -11.22137
 Alpha  occ. eigenvalues --  -11.22047 -11.21798 -11.20880  -1.40547  -1.39812
 Alpha  occ. eigenvalues --   -1.38707  -1.38541  -1.25406  -1.23900  -1.23239
 Alpha  occ. eigenvalues --   -1.22045  -1.10753  -1.09472  -1.07308  -1.04563
 Alpha  occ. eigenvalues --   -1.01303  -0.99449  -0.98972  -0.95721  -0.95480
 Alpha  occ. eigenvalues --   -0.95072  -0.91929  -0.87414  -0.85649  -0.82970
 Alpha  occ. eigenvalues --   -0.81181  -0.79942  -0.78663  -0.77379  -0.77149
 Alpha  occ. eigenvalues --   -0.73788  -0.71868  -0.71179  -0.69064  -0.68202
 Alpha  occ. eigenvalues --   -0.65949  -0.65523  -0.64860  -0.64327  -0.63705
 Alpha  occ. eigenvalues --   -0.62638  -0.62460  -0.61974  -0.61847  -0.61215
 Alpha  occ. eigenvalues --   -0.60859  -0.60144  -0.59302  -0.59195  -0.58979
 Alpha  occ. eigenvalues --   -0.58155  -0.57887  -0.56783  -0.56626  -0.56402
 Alpha  occ. eigenvalues --   -0.55763  -0.55241  -0.54884  -0.54548  -0.54224
 Alpha  occ. eigenvalues --   -0.53568  -0.52862  -0.52517  -0.52352  -0.51687
 Alpha  occ. eigenvalues --   -0.51027  -0.50760  -0.50158  -0.49456  -0.48660
 Alpha  occ. eigenvalues --   -0.48394  -0.47052  -0.46440  -0.45253  -0.42846
 Alpha  occ. eigenvalues --   -0.41968  -0.41921  -0.41403  -0.39346  -0.39270
 Alpha  occ. eigenvalues --   -0.38816  -0.38293  -0.34239
 Alpha virt. eigenvalues --    0.17090   0.18844   0.19247   0.20011   0.20141
 Alpha virt. eigenvalues --    0.21198   0.21515   0.22795   0.23620   0.24025
 Alpha virt. eigenvalues --    0.25232   0.25723   0.26096   0.26882   0.27372

 Mulliken atomic charges:
              1
     1  C   -0.279846
     2  N   -0.783082
     3  C    0.821594
     4  O   -0.629097
     5  C    0.102483
     6  C   -0.472574
     7  C   -0.334819
     8  C   -0.311071
     9  C   -0.364642
    10  C   -0.178784
    11  C   -0.174347
    12  C   -0.345962
    13  C   -0.310163
    14  C   -0.329043
    15  C    0.090730
    16  C   -0.509812
    17  N   -0.787102
    18  C    0.767042
    19  C   -0.595743
    20  O   -0.614270
    21  C    0.820188
    22  O   -0.640004
    23  N   -0.806857
    24  C   -0.274010
    25  N   -0.842669
    26  C    0.744594
    27  C   -0.588949
    28  O   -0.591982
    29  H    0.186831
    30  H    0.197746
    31  H    0.163552
    32  H    0.392224
    33  H    0.198231
    34  H    0.143690
    35  H    0.212745
    36  H    0.160479
    37  H    0.183501
    38  H    0.161283
    39  H    0.178341
    40  H    0.213934
    41  H    0.173021
    42  H    0.175794
    43  H    0.164085
    44  H    0.177784
    45  H    0.164376
    46  H    0.150617
    47  H    0.190981
    48  H    0.176174
    49  H    0.182654
    50  H    0.185756
    51  H    0.147904
    52  H    0.226610
    53  H    0.390380
    54  H    0.211762
    55  H    0.208670
    56  H    0.177629
    57  H    0.396627
    58  H    0.163612
    59  H    0.192897
    60  H    0.187439
    61  H    0.382763
    62  H    0.218850
    63  H    0.178459
    64  H    0.200802
 Sum of Mulliken atomic charges =   0.00000

 Dipole moment (field-independent basis, Debye):
    X=             -2.4322    Y=              1.9717    Z=             -0.6635  Tot=              3.2005
 Quadrupole moment (field-independent basis, Debye-Ang):
   XX=           -228.7503   YY=           -164.2452   ZZ=           -159.4165
   XY=             34.8138   XZ=              1.7629   YZ=             -9.0159

 Normal termination of Gaussian 09 at Thu Dec  5 19:09:50 2019.
