 Gaussian 09, Revision A.02,
 Gaussian 09:  EM64L-G09RevA.02 11-Jun-2009

 ---------------------------------
 #SP HF/6-31G* Geom=(ModRedundant)
 ---------------------------------

 ------------
 paramfit run
 ------------
 Symbolic Z-matrix:
 Charge =  0 Multiplicity = 1

                         Standard orientation:
 ---------------------------------------------------------------------
 Center     Atomic      Atomic             Coordinates (Angstroms)
 Number     Number       Type             X           Y           Z
 ---------------------------------------------------------------------
      1          6    20001001        5.033666   -2.423014    1.500591
      2          7    20001014        4.384676   -1.210150    1.047804
      3          6    20001002        4.558491   -0.786702   -0.226005
      4          8    20001024        5.044974   -1.480103   -1.075873
      5          6    90000001        3.972340    0.593482   -0.573720
      6          6    90000002        4.630314    1.123082   -1.852170
      7          6    90000002        2.430066    0.495817   -0.726877
      8          6    90000002        1.843954   -0.429558   -1.808445
      9          6    90000002        1.711347   -1.928231   -1.472240
     10          6    20001004        0.887500   -2.210789   -0.237852
     11          6    20001004       -0.385572   -2.567115   -0.182396
     12          6    90000002       -1.320550   -2.452324    0.997602
     13          6    90000002       -2.304601   -1.271567    0.913818
     14          6    90000002       -3.236311   -1.362110   -0.302172
     15          6    90000002       -4.392615   -0.334680   -0.411698
     16          6    90000002       -5.127623   -0.601540   -1.735328
     17          7    20001014       -5.307307   -0.545224    0.702098
     18          6    20001002       -6.344008    0.308823    0.944809
     19          6    20001001       -6.959923    0.189272    2.320005
     20          8    20001024       -6.742044    1.097213    0.132928
     21          6    20001002       -3.799956    1.087461   -0.289244
     22          8    20001024       -3.584653    1.563098    0.793043
     23          7    20001014       -3.446102    1.714594   -1.431817
     24          6    20001001       -2.932170    3.068292   -1.392108
     25          7    20001014        4.177250    1.532627    0.538687
     26          6    20001002        5.405179    1.879340    1.019990
     27          6    20001001        5.424694    3.106212    1.907978
     28          8    20001024        6.397093    1.254623    0.771043
     29          1    20001035        6.112544   -2.320041    1.519817
     30          1    20001035        4.778644   -3.240851    0.842694
     31          1    20001035        4.680115   -2.652598    2.497911
     32          1    20001029        4.201390   -0.509856    1.727716
     33          1    20001034        4.505200    0.431733   -2.671508
     34          1    20001034        4.183277    2.075645   -2.120535
     35          1    20001034        5.690647    1.262348   -1.699772
     36          1    20001034        2.093676    1.505258   -0.952909
     37          1    20001034        2.003678    0.242306    0.238631
     38          1    20001034        0.847966   -0.055198   -2.026347
     39          1    20001034        2.410769   -0.330525   -2.728384
     40          1    20001034        2.692081   -2.369864   -1.351891
     41          1    20001034        1.269307   -2.412145   -2.336104
     42          1    20001033        1.413575   -2.109997    0.697669
     43          1    20001033       -0.819740   -2.985861   -1.076774
     44          1    20001034       -0.755622   -2.358317    1.917104
     45          1    20001034       -1.885829   -3.379591    1.082626
     46          1    20001034       -2.875917   -1.251297    1.837702
     47          1    20001034       -1.748340   -0.343826    0.887331
     48          1    20001034       -3.694589   -2.348290   -0.333235
     49          1    20001034       -2.640527   -1.268316   -1.202503
     50          1    20001034       -5.592064   -1.579374   -1.683221
     51          1    20001034       -4.437515   -0.613877   -2.572573
     52          1    20001034       -5.901223    0.129567   -1.916343
     53          1    20001029       -4.900323   -0.946395    1.515816
     54          1    20001034       -7.957417    0.601044    2.297388
     55          1    20001034       -6.360913    0.765703    3.018604
     56          1    20001034       -6.993735   -0.838712    2.664225
     57          1    20001029       -3.850408    1.407010   -2.284600
     58          1    20001035       -2.597767    3.340141   -2.384678
     59          1    20001035       -2.095100    3.120895   -0.711540
     60          1    20001035       -3.686411    3.775915   -1.063254
     61          1    20001029        3.442092    2.187233    0.688954
     62          1    20001034        6.307065    3.072807    2.530295
     63          1    20001034        4.540228    3.176074    2.531188
     64          1    20001034        5.473278    3.994760    1.286751
 ---------------------------------------------------------------------

 SCF Done:  E(RHF) =  -1295.61610767     A.U. after   14 cycles

 The electronic state is 1-A.
 Alpha  occ. eigenvalues --  -20.53572 -20.52377 -20.52143 -20.51819 -15.59529
 Alpha  occ. eigenvalues --  -15.58479 -15.57861 -15.57483 -11.35886 -11.34579
 Alpha  occ. eigenvalues --  -11.34203 -11.33827 -11.28993 -11.28932 -11.25719
 Alpha  occ. eigenvalues --  -11.24847 -11.24243 -11.23966 -11.23702 -11.22854
 Alpha  occ. eigenvalues --  -11.22825 -11.22816 -11.22782 -11.22327 -11.22132
 Alpha  occ. eigenvalues --  -11.22099 -11.21803 -11.20856  -1.40513  -1.39805
 Alpha  occ. eigenvalues --   -1.38675  -1.38535  -1.25364  -1.23903  -1.23190
 Alpha  occ. eigenvalues --   -1.22029  -1.10789  -1.09465  -1.07307  -1.04564
 Alpha  occ. eigenvalues --   -1.01314  -0.99444  -0.98973  -0.95674  -0.95474
 Alpha  occ. eigenvalues --   -0.95039  -0.91938  -0.87408  -0.85617  -0.82959
 Alpha  occ. eigenvalues --   -0.81142  -0.79926  -0.78612  -0.77353  -0.77131
 Alpha  occ. eigenvalues --   -0.73922  -0.71859  -0.71140  -0.69024  -0.68196
 Alpha  occ. eigenvalues --   -0.65879  -0.65503  -0.64789  -0.64329  -0.63640
 Alpha  occ. eigenvalues --   -0.62557  -0.62412  -0.61970  -0.61825  -0.61178
 Alpha  occ. eigenvalues --   -0.60938  -0.60165  -0.59251  -0.59224  -0.58950
 Alpha  occ. eigenvalues --   -0.58151  -0.57870  -0.56748  -0.56539  -0.56495
 Alpha  occ. eigenvalues --   -0.55752  -0.55224  -0.54970  -0.54545  -0.54215
 Alpha  occ. eigenvalues --   -0.53527  -0.52969  -0.52591  -0.52330  -0.51698
 Alpha  occ. eigenvalues --   -0.50994  -0.50760  -0.50147  -0.49328  -0.48764
 Alpha  occ. eigenvalues --   -0.48362  -0.46994  -0.46449  -0.45325  -0.42817
 Alpha  occ. eigenvalues --   -0.41949  -0.41893  -0.41404  -0.39322  -0.39235
 Alpha  occ. eigenvalues --   -0.38783  -0.38276  -0.33831
 Alpha virt. eigenvalues --    0.16916   0.18877   0.19237   0.20032   0.20110
 Alpha virt. eigenvalues --    0.21165   0.21439   0.22804   0.23452   0.24150
 Alpha virt. eigenvalues --    0.25006   0.25483   0.26114   0.26984   0.27072

 Mulliken atomic charges:
              1
     1  C   -0.279782
     2  N   -0.783213
     3  C    0.821973
     4  O   -0.628912
     5  C    0.102170
     6  C   -0.472836
     7  C   -0.335034
     8  C   -0.310020
     9  C   -0.363944
    10  C   -0.177834
    11  C   -0.174859
    12  C   -0.344722
    13  C   -0.307887
    14  C   -0.329130
    15  C    0.089980
    16  C   -0.509939
    17  N   -0.786940
    18  C    0.767110
    19  C   -0.595752
    20  O   -0.613937
    21  C    0.820245
    22  O   -0.641045
    23  N   -0.806591
    24  C   -0.274169
    25  N   -0.842972
    26  C    0.744321
    27  C   -0.588843
    28  O   -0.592235
    29  H    0.186860
    30  H    0.197790
    31  H    0.162996
    32  H    0.391928
    33  H    0.197769
    34  H    0.143944
    35  H    0.212768
    36  H    0.161797
    37  H    0.184494
    38  H    0.164074
    39  H    0.180376
    40  H    0.208289
    41  H    0.168041
    42  H    0.178120
    43  H    0.168233
    44  H    0.172004
    45  H    0.157754
    46  H    0.152880
    47  H    0.191185
    48  H    0.176415
    49  H    0.184641
    50  H    0.185673
    51  H    0.148816
    52  H    0.226659
    53  H    0.389865
    54  H    0.211893
    55  H    0.208264
    56  H    0.177540
    57  H    0.396999
    58  H    0.165502
    59  H    0.192504
    60  H    0.186890
    61  H    0.383616
    62  H    0.218422
    63  H    0.178622
    64  H    0.201178
 Sum of Mulliken atomic charges =   0.00000

 Dipole moment (field-independent basis, Debye):
    X=             -2.2422    Y=              1.1239    Z=              1.7667  Tot=              3.0679
 Quadrupole moment (field-independent basis, Debye-Ang):
   XX=           -226.8331   YY=           -165.0067   ZZ=           -157.6309
   XY=             29.2548   XZ=             13.4177   YZ=             -8.1674

 Normal termination of Gaussian 09 at Thu Dec  5 17:19:08 2019.
