 Gaussian 09, Revision A.02,
 Gaussian 09:  EM64L-G09RevA.02 11-Jun-2009

 ---------------------------------
 #SP HF/6-31G* Geom=(ModRedundant)
 ---------------------------------

 ------------
 paramfit run
 ------------
 Symbolic Z-matrix:
 Charge =  0 Multiplicity = 1

                         Standard orientation:
 ---------------------------------------------------------------------
 Center     Atomic      Atomic             Coordinates (Angstroms)
 Number     Number       Type             X           Y           Z
 ---------------------------------------------------------------------
      1          6    20001001       -5.324198    2.760337    0.070786
      2          7    20001014       -4.679839    1.488440    0.324412
      3          6    20001002       -4.525297    0.597345   -0.682650
      4          8    20001024       -4.693590    0.889350   -1.834239
      5          6    90000001       -3.984662   -0.789726   -0.291325
      6          6    90000002       -4.300801   -1.795935   -1.402829
      7          6    90000002       -2.458719   -0.709779   -0.014365
      8          6    90000002       -1.516782   -0.259855   -1.145718
      9          6    90000002       -1.356835    1.254951   -1.383240
     10          6    20001004       -0.890730    2.021920   -0.168011
     11          6    20001004        0.341348    2.412510    0.115150
     12          6    90000002        1.169269    2.037162    1.320726
     13          6    90000002        2.242868    0.969146    1.044516
     14          6    90000002        3.273486    1.421205    0.001260
     15          6    90000002        4.508956    0.516067   -0.241610
     16          6    90000002        5.340957    1.156770   -1.364428
     17          7    20001014        5.298383    0.470633    0.981612
     18          6    20001002        6.369514   -0.365811    1.108488
     19          6    20001001        6.844983   -0.582132    2.526917
     20          8    20001024        6.899032   -0.892824    0.169868
     21          6    20001002        4.016176   -0.915297   -0.553207
     22          8    20001024        3.738182   -1.668525    0.340826
     23          7    20001014        3.817586   -1.236509   -1.849882
     24          6    20001001        3.405469   -2.576350   -2.214831
     25          7    20001014       -4.571890   -1.228059    0.983218
     26          6    20001002       -5.910297   -1.399483    1.180577
     27          6    20001001       -6.281838   -2.184064    2.421750
     28          8    20001024       -6.736012   -0.953145    0.435515
     29          1    20001035       -6.369976    2.638299   -0.186904
     30          1    20001035       -4.826636    3.265463   -0.744078
     31          1    20001035       -5.245912    3.371153    0.961364
     32          1    20001029       -4.754461    1.114199    1.241288
     33          1    20001034       -3.892994   -1.474258   -2.348952
     34          1    20001034       -3.879091   -2.762928   -1.145296
     35          1    20001034       -5.369223   -1.898968   -1.524423
     36          1    20001034       -2.159497   -1.716223    0.269812
     37          1    20001034       -2.299842   -0.086969    0.860362
     38          1    20001034       -0.535172   -0.657238   -0.904583
     39          1    20001034       -1.809577   -0.727235   -2.080170
     40          1    20001034       -2.290827    1.676800   -1.731188
     41          1    20001034       -0.651127    1.378533   -2.197204
     42          1    20001033       -1.664319    2.276230    0.538388
     43          1    20001033        0.823565    3.072157   -0.589190
     44          1    20001034        0.530477    1.677490    2.118251
     45          1    20001034        1.652918    2.935795    1.701694
     46          1    20001034        2.726274    0.734537    1.988789
     47          1    20001034        1.762799    0.055110    0.720626
     48          1    20001034        3.657191    2.401922    0.274204
     49          1    20001034        2.772191    1.538521   -0.952307
     50          1    20001034        5.723724    2.107887   -1.013077
     51          1    20001034        4.732197    1.355198   -2.240452
     52          1    20001034        6.180765    0.537385   -1.641603
     53          1    20001029        4.788936    0.623596    1.821719
     54          1    20001034        7.868433   -0.924557    2.508126
     55          1    20001034        6.229048   -1.350274    2.984854
     56          1    20001034        6.769425    0.319634    3.124823
     57          1    20001029        4.274671   -0.696362   -2.546032
     58          1    20001035        3.185609   -2.593681   -3.274208
     59          1    20001035        2.515434   -2.846538   -1.665774
     60          1    20001035        4.177178   -3.308045   -1.998405
     61          1    20001029       -3.966597   -1.748576    1.578390
     62          1    20001034       -7.297018   -1.939550    2.698510
     63          1    20001034       -5.616549   -1.977414    3.252554
     64          1    20001034       -6.229801   -3.245379    2.201060
 ---------------------------------------------------------------------

 SCF Done:  E(RHF) =  -1295.54591121     A.U. after   15 cycles

 The electronic state is 1-A.
 Alpha  occ. eigenvalues --  -20.53563 -20.52298 -20.51994 -20.51763 -15.59513
 Alpha  occ. eigenvalues --  -15.58278 -15.57785 -15.57444 -11.35880 -11.34504
 Alpha  occ. eigenvalues --  -11.34051 -11.33773 -11.28942 -11.28815 -11.25428
 Alpha  occ. eigenvalues --  -11.24846 -11.24259 -11.23875 -11.23566 -11.23013
 Alpha  occ. eigenvalues --  -11.22978 -11.22927 -11.22765 -11.22473 -11.22302
 Alpha  occ. eigenvalues --  -11.21977 -11.21829 -11.20807  -1.40501  -1.39690
 Alpha  occ. eigenvalues --   -1.38621  -1.38422  -1.25339  -1.23816  -1.22993
 Alpha  occ. eigenvalues --   -1.21996  -1.10816  -1.09413  -1.07272  -1.04508
 Alpha  occ. eigenvalues --   -1.01348  -0.99416  -0.98935  -0.95517  -0.95443
 Alpha  occ. eigenvalues --   -0.94895  -0.91988  -0.87359  -0.85562  -0.82906
 Alpha  occ. eigenvalues --   -0.81140  -0.79801  -0.78609  -0.77206  -0.77096
 Alpha  occ. eigenvalues --   -0.73534  -0.71734  -0.71114  -0.68982  -0.68104
 Alpha  occ. eigenvalues --   -0.65854  -0.65415  -0.64551  -0.64329  -0.63584
 Alpha  occ. eigenvalues --   -0.62480  -0.62400  -0.61932  -0.61714  -0.61190
 Alpha  occ. eigenvalues --   -0.60992  -0.60146  -0.59306  -0.58997  -0.58845
 Alpha  occ. eigenvalues --   -0.58161  -0.57728  -0.56882  -0.56641  -0.56355
 Alpha  occ. eigenvalues --   -0.55592  -0.55049  -0.54929  -0.54547  -0.54245
 Alpha  occ. eigenvalues --   -0.53603  -0.53128  -0.52613  -0.52277  -0.51816
 Alpha  occ. eigenvalues --   -0.50962  -0.50817  -0.50029  -0.49224  -0.48855
 Alpha  occ. eigenvalues --   -0.48124  -0.46992  -0.46612  -0.46315  -0.42795
 Alpha  occ. eigenvalues --   -0.41856  -0.41820  -0.41320  -0.39201  -0.39174
 Alpha  occ. eigenvalues --   -0.38630  -0.38237  -0.28641
 Alpha virt. eigenvalues --    0.12088   0.18877   0.19339   0.19927   0.20129
 Alpha virt. eigenvalues --    0.21132   0.21342   0.22879   0.23198   0.23679
 Alpha virt. eigenvalues --    0.25034   0.25675   0.25778   0.27064   0.27383

 Mulliken atomic charges:
              1
     1  C   -0.279753
     2  N   -0.782941
     3  C    0.822587
     4  O   -0.628706
     5  C    0.102050
     6  C   -0.473221
     7  C   -0.335336
     8  C   -0.312754
     9  C   -0.352624
    10  C   -0.188892
    11  C   -0.190496
    12  C   -0.332268
    13  C   -0.308897
    14  C   -0.327679
    15  C    0.088934
    16  C   -0.509939
    17  N   -0.786791
    18  C    0.767279
    19  C   -0.595767
    20  O   -0.613536
    21  C    0.820033
    22  O   -0.641890
    23  N   -0.805967
    24  C   -0.274929
    25  N   -0.843090
    26  C    0.744449
    27  C   -0.588646
    28  O   -0.592166
    29  H    0.186803
    30  H    0.197358
    31  H    0.162675
    32  H    0.391488
    33  H    0.197377
    34  H    0.144903
    35  H    0.212556
    36  H    0.163733
    37  H    0.183724
    38  H    0.170102
    39  H    0.184488
    40  H    0.200654
    41  H    0.163680
    42  H    0.185255
    43  H    0.176513
    44  H    0.166007
    45  H    0.148313
    46  H    0.156480
    47  H    0.193390
    48  H    0.175945
    49  H    0.186891
    50  H    0.185110
    51  H    0.149749
    52  H    0.226601
    53  H    0.389081
    54  H    0.211879
    55  H    0.208054
    56  H    0.177122
    57  H    0.396946
    58  H    0.166749
    59  H    0.194628
    60  H    0.185977
    61  H    0.383266
    62  H    0.218308
    63  H    0.177571
    64  H    0.201581
 Sum of Mulliken atomic charges =   0.00000

 Dipole moment (field-independent basis, Debye):
    X=              0.8835    Y=              0.4992    Z=              4.3142  Tot=              4.4320
 Quadrupole moment (field-independent basis, Debye-Ang):
   XX=           -217.5125   YY=           -165.9903   ZZ=           -157.5600
   XY=             19.8617   XZ=            -24.3551   YZ=              3.1510

 Normal termination of Gaussian 09 at Thu Dec  5 17:42:06 2019.
