 Gaussian 09, Revision A.02,
 Gaussian 09:  EM64L-G09RevA.02 11-Jun-2009

 ---------------------------------
 #SP HF/6-31G* Geom=(ModRedundant)
 ---------------------------------

 ------------
 paramfit run
 ------------
 Symbolic Z-matrix:
 Charge =  0 Multiplicity = 1

                         Standard orientation:
 ---------------------------------------------------------------------
 Center     Atomic      Atomic             Coordinates (Angstroms)
 Number     Number       Type             X           Y           Z
 ---------------------------------------------------------------------
      1          6    20001001       -3.938285    2.829371    0.933067
      2          7    20001014       -4.216875    1.418833    0.759816
      3          6    20001002       -4.335232    0.902152   -0.485632
      4          8    20001024       -4.001657    1.504235   -1.468470
      5          6    90000001       -4.795995   -0.563716   -0.576808
      6          6    90000002       -5.320749   -0.849814   -1.987703
      7          6    90000002       -3.627714   -1.515378   -0.201228
      8          6    90000002       -2.340542   -1.487126   -1.045045
      9          6    90000002       -1.299035   -0.396643   -0.724503
     10          6    20001004       -0.818778   -0.407271    0.707809
     11          6    20001004        0.292811   -0.946540    1.181431
     12          6    90000002        1.252133   -1.859159    0.455771
     13          6    90000002        2.538864   -1.168233   -0.030550
     14          6    90000002        3.368023   -0.582635    1.120312
     15          6    90000002        4.773125   -0.015598    0.790461
     16          6    90000002        5.359312    0.558973    2.090347
     17          7    20001014        5.614955   -1.106960    0.319523
     18          6    20001002        6.864286   -0.879191   -0.180826
     19          6    20001001        7.455006   -2.026834   -0.967445
     20          8    20001024        7.455223    0.151204   -0.012837
     21          6    20001002        4.631575    1.014685   -0.352869
     22          8    20001024        4.596719    0.649202   -1.497045
     23          7    20001014        4.447737    2.307082   -0.006614
     24          6    20001001        4.358806    3.330518   -1.027826
     25          7    20001014       -5.836124   -0.837557    0.425475
     26          6    20001002       -7.032941   -0.185511    0.471717
     27          6    20001001       -8.090609   -0.843376    1.333501
     28          8    20001024       -7.233593    0.839849   -0.115237
     29          1    20001035       -4.759136    3.447827    0.588587
     30          1    20001035       -3.050804    3.096902    0.378515
     31          1    20001035       -3.765131    3.020902    1.984583
     32          1    20001029       -4.725835    0.962629    1.480319
     33          1    20001034       -4.572748   -0.631916   -2.734661
     34          1    20001034       -5.602873   -1.895751   -2.062935
     35          1    20001034       -6.184170   -0.236216   -2.199667
     36          1    20001034       -4.035009   -2.521480   -0.272575
     37          1    20001034       -3.380517   -1.360897    0.844386
     38          1    20001034       -1.858528   -2.449925   -0.902573
     39          1    20001034       -2.589419   -1.428118   -2.099536
     40          1    20001034       -1.702048    0.580925   -0.955382
     41          1    20001034       -0.463853   -0.543167   -1.400400
     42          1    20001033       -1.465966    0.089713    1.412271
     43          1    20001033        0.558672   -0.713137    2.200549
     44          1    20001034        0.765999   -2.311639   -0.400034
     45          1    20001034        1.519754   -2.679204    1.120978
     46          1    20001034        3.115905   -1.899830   -0.589266
     47          1    20001034        2.281612   -0.389742   -0.736669
     48          1    20001034        3.512832   -1.343319    1.884462
     49          1    20001034        2.802034    0.217633    1.582456
     50          1    20001034        5.514776   -0.254060    2.789912
     51          1    20001034        4.673593    1.260236    2.554459
     52          1    20001034        6.309327    1.042810    1.919727
     53          1    20001029        5.130136   -1.865352   -0.102975
     54          1    20001034        8.528659   -1.919638   -0.996473
     55          1    20001034        7.073012   -1.982990   -1.982966
     56          1    20001034        7.192546   -2.990108   -0.543654
     57          1    20001029        4.719139    2.595829    0.903483
     58          1    20001035        4.092532    4.267199   -0.555970
     59          1    20001035        3.593971    3.066455   -1.743314
     60          1    20001035        5.297490    3.452393   -1.558651
     61          1    20001029       -5.810845   -1.745544    0.833481
     62          1    20001034       -8.820387   -0.099849    1.619098
     63          1    20001034       -7.669839   -1.302458    2.221051
     64          1    20001034       -8.590644   -1.614873    0.756823
 ---------------------------------------------------------------------

 SCF Done:  E(RHF) =  -1295.61975512     A.U. after   14 cycles

 The electronic state is 1-A.
 Alpha  occ. eigenvalues --  -20.53650 -20.52038 -20.51859 -20.51571 -15.59608
 Alpha  occ. eigenvalues --  -15.57870 -15.57544 -15.57512 -11.35969 -11.34247
 Alpha  occ. eigenvalues --  -11.33870 -11.33657 -11.29027 -11.28554 -11.24938
 Alpha  occ. eigenvalues --  -11.24911 -11.24359 -11.24006 -11.23397 -11.22650
 Alpha  occ. eigenvalues --  -11.22589 -11.22513 -11.22323 -11.22191 -11.21987
 Alpha  occ. eigenvalues --  -11.21788 -11.21606 -11.20846  -1.40587  -1.39352
 Alpha  occ. eigenvalues --   -1.38716  -1.38074  -1.25434  -1.23538  -1.22582
 Alpha  occ. eigenvalues --   -1.22090  -1.10760  -1.09253  -1.07176  -1.04215
 Alpha  occ. eigenvalues --   -1.01224  -0.99318  -0.98730  -0.95528  -0.95132
 Alpha  occ. eigenvalues --   -0.94565  -0.92182  -0.87273  -0.85675  -0.82838
 Alpha  occ. eigenvalues --   -0.81311  -0.79477  -0.78733  -0.77189  -0.76852
 Alpha  occ. eigenvalues --   -0.71955  -0.71307  -0.71129  -0.68951  -0.67972
 Alpha  occ. eigenvalues --   -0.66721  -0.65838  -0.64513  -0.63923  -0.63689
 Alpha  occ. eigenvalues --   -0.62596  -0.62360  -0.61735  -0.61400  -0.61121
 Alpha  occ. eigenvalues --   -0.60904  -0.59900  -0.59332  -0.58690  -0.58437
 Alpha  occ. eigenvalues --   -0.58254  -0.57780  -0.56546  -0.56417  -0.56191
 Alpha  occ. eigenvalues --   -0.55451  -0.54829  -0.54735  -0.54566  -0.54006
 Alpha  occ. eigenvalues --   -0.53102  -0.52808  -0.52474  -0.52120  -0.51575
 Alpha  occ. eigenvalues --   -0.51032  -0.50318  -0.49762  -0.49292  -0.48603
 Alpha  occ. eigenvalues --   -0.48326  -0.46971  -0.46345  -0.44678  -0.42866
 Alpha  occ. eigenvalues --   -0.41942  -0.41490  -0.41053  -0.39292  -0.38818
 Alpha  occ. eigenvalues --   -0.38329  -0.38260  -0.34217
 Alpha virt. eigenvalues --    0.16956   0.18799   0.19677   0.20004   0.20238
 Alpha virt. eigenvalues --    0.21615   0.21978   0.23135   0.23381   0.23862
 Alpha virt. eigenvalues --    0.25374   0.25655   0.26542   0.27123   0.27523

 Mulliken atomic charges:
              1
     1  C   -0.279570
     2  N   -0.783327
     3  C    0.821789
     4  O   -0.628286
     5  C    0.102278
     6  C   -0.472737
     7  C   -0.334089
     8  C   -0.313222
     9  C   -0.373612
    10  C   -0.179832
    11  C   -0.177763
    12  C   -0.353450
    13  C   -0.311768
    14  C   -0.329208
    15  C    0.091229
    16  C   -0.509653
    17  N   -0.787643
    18  C    0.767320
    19  C   -0.595681
    20  O   -0.613806
    21  C    0.820592
    22  O   -0.639545
    23  N   -0.805857
    24  C   -0.275622
    25  N   -0.843054
    26  C    0.744576
    27  C   -0.588685
    28  O   -0.591790
    29  H    0.186976
    30  H    0.198104
    31  H    0.162316
    32  H    0.391386
    33  H    0.199092
    34  H    0.144134
    35  H    0.212463
    36  H    0.161405
    37  H    0.181808
    38  H    0.164108
    39  H    0.179428
    40  H    0.215085
    41  H    0.176742
    42  H    0.179988
    43  H    0.169895
    44  H    0.177019
    45  H    0.162498
    46  H    0.150129
    47  H    0.199297
    48  H    0.173092
    49  H    0.185172
    50  H    0.183433
    51  H    0.148611
    52  H    0.226651
    53  H    0.389732
    54  H    0.211184
    55  H    0.209428
    56  H    0.176179
    57  H    0.395362
    58  H    0.165196
    59  H    0.199805
    60  H    0.184850
    61  H    0.382641
    62  H    0.218610
    63  H    0.177215
    64  H    0.201384
 Sum of Mulliken atomic charges =   0.00000

 Dipole moment (field-independent basis, Debye):
    X=             -2.7773    Y=             -4.8827    Z=              6.0145  Tot=              8.2297
 Quadrupole moment (field-independent basis, Debye-Ang):
   XX=           -194.2200   YY=           -156.0384   ZZ=           -172.7970
   XY=             17.4422   XZ=            -14.5051   YZ=              9.8364

 Normal termination of Gaussian 09 at Thu Dec  5 17:35:51 2019.
