 Gaussian 09, Revision A.02,
 Gaussian 09:  EM64L-G09RevA.02 11-Jun-2009

 ---------------------------------
 #SP HF/6-31G* Geom=(ModRedundant)
 ---------------------------------

 ------------
 paramfit run
 ------------
 Symbolic Z-matrix:
 Charge =  0 Multiplicity = 1

                         Standard orientation:
 ---------------------------------------------------------------------
 Center     Atomic      Atomic             Coordinates (Angstroms)
 Number     Number       Type             X           Y           Z
 ---------------------------------------------------------------------
      1          6    20001001       -3.208809    2.388663   -1.447091
      2          7    20001014       -3.700247    1.375084   -0.536930
      3          6    20001002       -4.316415    0.272487   -1.023473
      4          8    20001024       -4.284222   -0.024979   -2.185465
      5          6    90000001       -4.954122   -0.668500    0.014438
      6          6    90000002       -5.977675   -1.575865   -0.676119
      7          6    90000002       -3.853774   -1.496476    0.732277
      8          6    90000002       -2.958422   -2.430567   -0.101662
      9          6    90000002       -1.746656   -1.805438   -0.821018
     10          6    20001004       -0.792801   -1.079918    0.098797
     11          6    20001004        0.340125   -1.536073    0.607874
     12          6    90000002        1.476703   -2.200962   -0.130956
     13          6    90000002        2.688891   -1.286564   -0.384015
     14          6    90000002        3.326885   -0.775705    0.914794
     15          6    90000002        4.660209    0.009292    0.811483
     16          6    90000002        5.047571    0.456182    2.230529
     17          7    20001014        5.684783   -0.883544    0.287439
     18          6    20001002        6.926880   -0.426094   -0.045714
     19          6    20001001        7.738323   -1.359759   -0.914411
     20          8    20001024        7.349620    0.635435    0.319787
     21          6    20001002        4.470865    1.170223   -0.191071
     22          8    20001024        4.584569    0.976133   -1.371464
     23          7    20001014        4.077300    2.363013    0.305255
     24          6    20001001        3.930549    3.505962   -0.572433
     25          7    20001014       -5.594035    0.108393    1.086063
     26          6    20001002       -6.607015    0.996746    0.875411
     27          6    20001001       -7.359950    1.420120    2.119582
     28          8    20001024       -6.877233    1.423285   -0.211413
     29          1    20001035       -4.016744    2.884653   -1.972623
     30          1    20001035       -2.551594    1.937155   -2.175742
     31          1    20001035       -2.650518    3.122043   -0.878920
     32          1    20001029       -3.970623    1.670608    0.371832
     33          1    20001034       -5.524258   -2.136037   -1.479582
     34          1    20001034       -6.393108   -2.269141    0.049154
     35          1    20001034       -6.778436   -0.986556   -1.098520
     36          1    20001034       -4.378941   -2.117504    1.454594
     37          1    20001034       -3.233497   -0.817622    1.309073
     38          1    20001034       -2.578257   -3.183466    0.582616
     39          1    20001034       -3.557442   -2.963307   -0.832919
     40          1    20001034       -2.083326   -1.123469   -1.591041
     41          1    20001034       -1.231498   -2.608218   -1.336761
     42          1    20001033       -1.080976   -0.073837    0.357388
     43          1    20001033        0.483507   -1.423430    1.671130
     44          1    20001034        1.133352   -2.580804   -1.085574
     45          1    20001034        1.800852   -3.068997    0.441788
     46          1    20001034        3.408717   -1.847592   -0.973484
     47          1    20001034        2.384300   -0.451914   -1.001602
     48          1    20001034        3.513164   -1.615878    1.580334
     49          1    20001034        2.616360   -0.131665    1.419488
     50          1    20001034        5.257211   -0.424433    2.826474
     51          1    20001034        4.232813    0.987480    2.711440
     52          1    20001034        5.930413    1.077718    2.225849
     53          1    20001029        5.349596   -1.627155   -0.281248
     54          1    20001034        8.784553   -1.112629   -0.817508
     55          1    20001034        7.440813   -1.215932   -1.948783
     56          1    20001034        7.580248   -2.400637   -0.653707
     57          1    20001029        4.227482    2.546725    1.269105
     58          1    20001035        3.495497    4.320794   -0.008784
     59          1    20001035        3.273801    3.254450   -1.392218
     60          1    20001035        4.883812    3.824208   -0.982020
     61          1    20001029       -5.535754   -0.288290    1.997541
     62          1    20001034       -7.843849    2.367067    1.929568
     63          1    20001034       -6.709825    1.508494    2.982762
     64          1    20001034       -8.122499    0.680989    2.343200
 ---------------------------------------------------------------------

 SCF Done:  E(RHF) =  -1295.56829399     A.U. after   14 cycles

 The electronic state is 1-A.
 Alpha  occ. eigenvalues --  -20.53661 -20.52107 -20.51809 -20.51717 -15.59623
 Alpha  occ. eigenvalues --  -15.58065 -15.57585 -15.57502 -11.35982 -11.34309
 Alpha  occ. eigenvalues --  -11.33828 -11.33800 -11.29031 -11.28638 -11.25200
 Alpha  occ. eigenvalues --  -11.24860 -11.24381 -11.23998 -11.23394 -11.22927
 Alpha  occ. eigenvalues --  -11.22576 -11.22544 -11.22521 -11.22397 -11.22215
 Alpha  occ. eigenvalues --  -11.21897 -11.21679 -11.20880  -1.40595  -1.39457
 Alpha  occ. eigenvalues --   -1.38669  -1.38186  -1.25439  -1.23616  -1.22774
 Alpha  occ. eigenvalues --   -1.22054  -1.10727  -1.09328  -1.07224  -1.04334
 Alpha  occ. eigenvalues --   -1.01301  -0.99365  -0.98793  -0.95494  -0.95243
 Alpha  occ. eigenvalues --   -0.94690  -0.92127  -0.87259  -0.85719  -0.82849
 Alpha  occ. eigenvalues --   -0.81380  -0.79592  -0.78842  -0.77157  -0.76997
 Alpha  occ. eigenvalues --   -0.71979  -0.71308  -0.71139  -0.68974  -0.67981
 Alpha  occ. eigenvalues --   -0.66079  -0.65904  -0.64692  -0.64112  -0.63887
 Alpha  occ. eigenvalues --   -0.62563  -0.62182  -0.62051  -0.61535  -0.61225
 Alpha  occ. eigenvalues --   -0.61035  -0.59941  -0.59299  -0.58876  -0.58527
 Alpha  occ. eigenvalues --   -0.58136  -0.57684  -0.56971  -0.56500  -0.56207
 Alpha  occ. eigenvalues --   -0.55505  -0.54947  -0.54837  -0.54530  -0.54074
 Alpha  occ. eigenvalues --   -0.53192  -0.52964  -0.52582  -0.52292  -0.51659
 Alpha  occ. eigenvalues --   -0.51031  -0.50646  -0.49841  -0.48966  -0.48633
 Alpha  occ. eigenvalues --   -0.48331  -0.46910  -0.46302  -0.46097  -0.42887
 Alpha  occ. eigenvalues --   -0.41928  -0.41586  -0.41125  -0.39278  -0.38954
 Alpha  occ. eigenvalues --   -0.38400  -0.38284  -0.30136
 Alpha virt. eigenvalues --    0.13748   0.18780   0.19550   0.19942   0.20167
 Alpha virt. eigenvalues --    0.21390   0.21632   0.23102   0.23356   0.24321
 Alpha virt. eigenvalues --    0.25311   0.25755   0.26460   0.26907   0.27625

 Mulliken atomic charges:
              1
     1  C   -0.279998
     2  N   -0.783361
     3  C    0.822406
     4  O   -0.627662
     5  C    0.102299
     6  C   -0.473062
     7  C   -0.334731
     8  C   -0.308846
     9  C   -0.361536
    10  C   -0.187009
    11  C   -0.187367
    12  C   -0.341670
    13  C   -0.307949
    14  C   -0.327585
    15  C    0.090094
    16  C   -0.509312
    17  N   -0.787351
    18  C    0.767205
    19  C   -0.595760
    20  O   -0.614182
    21  C    0.820539
    22  O   -0.638804
    23  N   -0.806717
    24  C   -0.275303
    25  N   -0.843014
    26  C    0.744545
    27  C   -0.588638
    28  O   -0.591559
    29  H    0.186988
    30  H    0.199094
    31  H    0.161973
    32  H    0.390955
    33  H    0.198487
    34  H    0.143927
    35  H    0.212755
    36  H    0.160776
    37  H    0.182714
    38  H    0.164680
    39  H    0.183724
    40  H    0.203040
    41  H    0.169079
    42  H    0.187602
    43  H    0.173661
    44  H    0.177356
    45  H    0.147663
    46  H    0.156231
    47  H    0.197951
    48  H    0.173748
    49  H    0.183645
    50  H    0.184076
    51  H    0.147263
    52  H    0.226513
    53  H    0.389940
    54  H    0.211202
    55  H    0.209679
    56  H    0.176812
    57  H    0.395221
    58  H    0.163623
    59  H    0.198718
    60  H    0.185953
    61  H    0.382318
    62  H    0.218706
    63  H    0.176932
    64  H    0.201327
 Sum of Mulliken atomic charges =   0.00000

 Dipole moment (field-independent basis, Debye):
    X=             -1.8656    Y=             -1.5493    Z=              7.5008  Tot=              7.8831
 Quadrupole moment (field-independent basis, Debye-Ang):
   XX=           -201.5656   YY=           -156.6561   ZZ=           -174.4023
   XY=             -7.7960   XZ=            -29.7457   YZ=              6.5502

 Normal termination of Gaussian 09 at Thu Dec  5 18:07:59 2019.
