 Gaussian 09, Revision A.02,
 Gaussian 09:  EM64L-G09RevA.02 11-Jun-2009

 ---------------------------------
 #SP HF/6-31G* Geom=(ModRedundant)
 ---------------------------------

 ------------
 paramfit run
 ------------
 Symbolic Z-matrix:
 Charge =  0 Multiplicity = 1

                         Standard orientation:
 ---------------------------------------------------------------------
 Center     Atomic      Atomic             Coordinates (Angstroms)
 Number     Number       Type             X           Y           Z
 ---------------------------------------------------------------------
      1          6    20001001       -4.460037    2.420763    1.825684
      2          7    20001014       -4.479262    1.117593    1.194317
      3          6    20001002       -4.375137    1.017979   -0.151545
      4          8    20001024       -4.042857    1.940485   -0.843150
      5          6    90000001       -4.572517   -0.386173   -0.750532
      6          6    90000002       -4.887358   -0.266738   -2.245341
      7          6    90000002       -3.309192   -1.254856   -0.503545
      8          6    90000002       -1.961552   -0.797046   -1.089987
      9          6    90000002       -1.157060    0.253279   -0.298628
     10          6    20001004       -0.838661   -0.157132    1.119985
     11          6    20001004        0.289790   -0.677229    1.574797
     12          6    90000002        1.162578   -1.708650    0.900877
     13          6    90000002        2.427701   -1.133285    0.239075
     14          6    90000002        3.360468   -0.443822    1.243813
     15          6    90000002        4.751998    0.023247    0.743677
     16          6    90000002        5.453842    0.729523    1.915018
     17          7    20001014        5.522124   -1.149622    0.352758
     18          6    20001002        6.735163   -1.033826   -0.262207
     19          6    20001001        7.228933   -2.291409   -0.940057
     20          8    20001024        7.367609   -0.014454   -0.268212
     21          6    20001002        4.552943    0.910333   -0.506195
     22          8    20001024        4.418786    0.408986   -1.589976
     23          7    20001014        4.434850    2.241611   -0.311941
     24          6    20001001        4.297487    3.134825   -1.443976
     25          7    20001014       -5.654125   -1.094706   -0.050864
     26          6    20001002       -6.940838   -0.646373    0.004268
     27          6    20001001       -7.960490   -1.672456    0.453245
     28          8    20001024       -7.245323    0.479818   -0.269813
     29          1    20001035       -5.330627    3.009884    1.561188
     30          1    20001035       -3.575155    2.960524    1.521769
     31          1    20001035       -4.435378    2.284266    2.899515
     32          1    20001029       -4.979544    0.394496    1.655982
     33          1    20001034       -4.110208    0.270892   -2.766805
     34          1    20001034       -4.981382   -1.259564   -2.675099
     35          1    20001034       -5.813117    0.269949   -2.393204
     36          1    20001034       -3.532959   -2.227111   -0.936983
     37          1    20001034       -3.205150   -1.415024    0.565006
     38          1    20001034       -1.343916   -1.686685   -1.171746
     39          1    20001034       -2.101884   -0.433818   -2.102778
     40          1    20001034       -1.690219    1.195018   -0.283383
     41          1    20001034       -0.241346    0.436818   -0.849640
     42          1    20001033       -1.631628    0.002545    1.832599
     43          1    20001033        0.640562   -0.331206    2.534479
     44          1    20001034        0.598446   -2.243315    0.146321
     45          1    20001034        1.456481   -2.450775    1.642136
     46          1    20001034        2.937813   -1.949808   -0.264362
     47          1    20001034        2.139732   -0.437787   -0.538220
     48          1    20001034        3.541402   -1.110159    2.084522
     49          1    20001034        2.855927    0.428533    1.642293
     50          1    20001034        5.638842    0.002939    2.697599
     51          1    20001034        4.827202    1.508607    2.336599
     52          1    20001034        6.401716    1.151358    1.616136
     53          1    20001029        4.983785   -1.934589    0.065130
     54          1    20001034        8.299817   -2.230552   -1.060736
     55          1    20001034        6.770922   -2.357516   -1.922392
     56          1    20001034        6.971640   -3.184487   -0.380956
     57          1    20001029        4.784341    2.628936    0.532539
     58          1    20001035        4.096422    4.131955   -1.074888
     59          1    20001035        3.472059    2.815087   -2.062897
     60          1    20001035        5.195449    3.153990   -2.053115
     61          1    20001029       -5.521845   -2.075040    0.063138
     62          1    20001034       -8.830453   -1.157031    0.833344
     63          1    20001034       -7.567019   -2.336234    1.214908
     64          1    20001034       -8.259910   -2.273653   -0.399229
 ---------------------------------------------------------------------

 SCF Done:  E(RHF) =  -1295.58432163     A.U. after   14 cycles

 The electronic state is 1-A.
 Alpha  occ. eigenvalues --  -20.53633 -20.52064 -20.51860 -20.51619 -15.59590
 Alpha  occ. eigenvalues --  -15.57904 -15.57535 -15.57532 -11.35952 -11.34274
 Alpha  occ. eigenvalues --  -11.33868 -11.33699 -11.29010 -11.28580 -11.24971
 Alpha  occ. eigenvalues --  -11.24892 -11.24342 -11.23995 -11.23441 -11.22717
 Alpha  occ. eigenvalues --  -11.22551 -11.22474 -11.22256 -11.22123 -11.21930
 Alpha  occ. eigenvalues --  -11.21793 -11.21671 -11.20813  -1.40572  -1.39388
 Alpha  occ. eigenvalues --   -1.38717  -1.38113  -1.25418  -1.23563  -1.22618
 Alpha  occ. eigenvalues --   -1.22076  -1.10735  -1.09244  -1.07160  -1.04222
 Alpha  occ. eigenvalues --   -1.01215  -0.99319  -0.98750  -0.95509  -0.95212
 Alpha  occ. eigenvalues --   -0.94607  -0.92134  -0.87300  -0.85611  -0.82836
 Alpha  occ. eigenvalues --   -0.81226  -0.79505  -0.78648  -0.77177  -0.76883
 Alpha  occ. eigenvalues --   -0.72254  -0.71387  -0.71171  -0.68956  -0.67944
 Alpha  occ. eigenvalues --   -0.66565  -0.65769  -0.64510  -0.63886  -0.63678
 Alpha  occ. eigenvalues --   -0.62603  -0.62408  -0.61702  -0.61411  -0.61069
 Alpha  occ. eigenvalues --   -0.60876  -0.59917  -0.59335  -0.58664  -0.58474
 Alpha  occ. eigenvalues --   -0.58234  -0.57626  -0.56673  -0.56502  -0.56135
 Alpha  occ. eigenvalues --   -0.55312  -0.54828  -0.54703  -0.54570  -0.54241
 Alpha  occ. eigenvalues --   -0.53231  -0.52762  -0.52570  -0.52050  -0.51854
 Alpha  occ. eigenvalues --   -0.51018  -0.50550  -0.49768  -0.49356  -0.48842
 Alpha  occ. eigenvalues --   -0.48149  -0.47175  -0.46233  -0.45526  -0.42850
 Alpha  occ. eigenvalues --   -0.41914  -0.41526  -0.41082  -0.39279  -0.38853
 Alpha  occ. eigenvalues --   -0.38322  -0.38292  -0.31193
 Alpha virt. eigenvalues --    0.14157   0.18812   0.19652   0.20037   0.20193
 Alpha virt. eigenvalues --    0.21574   0.21804   0.23055   0.23655   0.23776
 Alpha virt. eigenvalues --    0.25467   0.25753   0.26266   0.26793   0.27533

 Mulliken atomic charges:
              1
     1  C   -0.279314
     2  N   -0.783016
     3  C    0.821646
     4  O   -0.628989
     5  C    0.102371
     6  C   -0.472461
     7  C   -0.333667
     8  C   -0.316652
     9  C   -0.366430
    10  C   -0.189271
    11  C   -0.187116
    12  C   -0.346695
    13  C   -0.315003
    14  C   -0.329047
    15  C    0.091753
    16  C   -0.509811
    17  N   -0.787603
    18  C    0.767333
    19  C   -0.595638
    20  O   -0.613709
    21  C    0.820184
    22  O   -0.640157
    23  N   -0.805776
    24  C   -0.275519
    25  N   -0.842987
    26  C    0.744631
    27  C   -0.588698
    28  O   -0.591860
    29  H    0.186746
    30  H    0.197728
    31  H    0.162738
    32  H    0.391465
    33  H    0.199354
    34  H    0.144308
    35  H    0.212207
    36  H    0.161347
    37  H    0.179688
    38  H    0.164034
    39  H    0.177920
    40  H    0.218083
    41  H    0.180968
    42  H    0.182103
    43  H    0.173680
    44  H    0.177709
    45  H    0.167949
    46  H    0.147011
    47  H    0.197808
    48  H    0.173500
    49  H    0.184124
    50  H    0.183599
    51  H    0.149194
    52  H    0.226680
    53  H    0.389668
    54  H    0.211282
    55  H    0.209102
    56  H    0.176128
    57  H    0.395813
    58  H    0.166180
    59  H    0.198671
    60  H    0.184900
    61  H    0.382604
    62  H    0.218583
    63  H    0.177224
    64  H    0.201401
 Sum of Mulliken atomic charges =   0.00000

 Dipole moment (field-independent basis, Debye):
    X=             -2.3253    Y=             -5.6293    Z=              4.6360  Tot=              7.6543
 Quadrupole moment (field-independent basis, Debye-Ang):
   XX=           -196.5931   YY=           -156.4875   ZZ=           -171.1348
   XY=             24.9667   XZ=             -4.0951   YZ=              8.0860

 Normal termination of Gaussian 09 at Thu Dec  5 17:19:35 2019.
