 Gaussian 09, Revision A.02,
 Gaussian 09:  EM64L-G09RevA.02 11-Jun-2009

 ---------------------------------
 #SP HF/6-31G* Geom=(ModRedundant)
 ---------------------------------

 ------------
 paramfit run
 ------------
 Symbolic Z-matrix:
 Charge =  0 Multiplicity = 1

                         Standard orientation:
 ---------------------------------------------------------------------
 Center     Atomic      Atomic             Coordinates (Angstroms)
 Number     Number       Type             X           Y           Z
 ---------------------------------------------------------------------
      1          6    20001001       -4.940385    1.762293    2.385147
      2          7    20001014       -4.665857    0.705013    1.434337
      3          6    20001002       -4.429370    1.008806    0.136688
      4          8    20001024       -4.213286    2.129094   -0.234808
      5          6    90000001       -4.313593   -0.180365   -0.833803
      6          6    90000002       -4.514658    0.309377   -2.271708
      7          6    90000002       -2.938614   -0.880725   -0.659076
      8          6    90000002       -1.652155   -0.075787   -0.917406
      9          6    90000002       -1.125187    0.816128    0.224272
     10          6    20001004       -0.860733    0.073110    1.512785
     11          6    20001004        0.300337   -0.376794    1.960292
     12          6    90000002        1.116245   -1.520855    1.407867
     13          6    90000002        2.324567   -1.085632    0.559278
     14          6    90000002        3.334797   -0.246812    1.353462
     15          6    90000002        4.682018    0.107764    0.672344
     16          6    90000002        5.475380    0.995026    1.645378
     17          7    20001014        5.418175   -1.125525    0.430266
     18          6    20001002        6.578218   -1.134199   -0.288956
     19          6    20001001        7.015956   -2.496397   -0.776403
     20          8    20001024        7.208392   -0.140002   -0.520466
     21          6    20001002        4.383921    0.769428   -0.692231
     22          8    20001024        4.163472    0.091125   -1.659306
     23          7    20001014        4.282029    2.115801   -0.721875
     24          6    20001001        4.054845    2.802897   -1.976661
     25          7    20001014       -5.303373   -1.214352   -0.498189
     26          6    20001002       -6.650324   -1.001294   -0.498938
     27          6    20001001       -7.499584   -2.255272   -0.478570
     28          8    20001024       -7.131197    0.096378   -0.502977
     29          1    20001035       -5.878031    2.262707    2.172177
     30          1    20001035       -4.146512    2.494182    2.356391
     31          1    20001035       -4.983990    1.331831    3.377696
     32          1    20001029       -5.063136   -0.186742    1.616619
     33          1    20001034       -3.807098    1.084651   -2.523187
     34          1    20001034       -4.387666   -0.522748   -2.957768
     35          1    20001034       -5.506795    0.718634   -2.394581
     36          1    20001034       -2.942127   -1.712064   -1.360563
     37          1    20001034       -2.899688   -1.320022    0.332782
     38          1    20001034       -0.877233   -0.800823   -1.148570
     39          1    20001034       -1.768645    0.534385   -1.807065
     40          1    20001034       -1.821184    1.622227    0.417034
     41          1    20001034       -0.214495    1.285661   -0.130710
     42          1    20001033       -1.728079   -0.098738    2.129464
     43          1    20001033        0.726754    0.124140    2.815274
     44          1    20001034        0.493499   -2.169343    0.803620
     45          1    20001034        1.468275   -2.128513    2.240585
     46          1    20001034        2.792633   -1.983623    0.165704
     47          1    20001034        1.975562   -0.530181   -0.301245
     48          1    20001034        3.582184   -0.761137    2.279639
     49          1    20001034        2.863910    0.688047    1.633914
     50          1    20001034        5.722160    0.411306    2.524554
     51          1    20001034        4.884609    1.843697    1.974206
     52          1    20001034        6.396433    1.345867    1.204570
     53          1    20001029        4.858395   -1.940639    0.325628
     54          1    20001034        8.073785   -2.472204   -0.989643
     55          1    20001034        6.480895   -2.724006   -1.693480
     56          1    20001034        6.803963   -3.276346   -0.053132
     57          1    20001029        4.697974    2.637627    0.012970
     58          1    20001035        3.884144    3.851357   -1.770470
     59          1    20001035        3.182526    2.393096   -2.464255
     60          1    20001035        4.901263    2.704458   -2.648703
     61          1    20001029       -5.004034   -2.154670   -0.631406
     62          1    20001034       -8.478796   -2.007610   -0.095450
     63          1    20001034       -7.058431   -3.040139    0.125516
     64          1    20001034       -7.608978   -2.627829   -1.491998
 ---------------------------------------------------------------------

 SCF Done:  E(RHF) =  -1295.51001624     A.U. after   16 cycles

 The electronic state is 1-A.
 Alpha  occ. eigenvalues --  -20.53614 -20.52117 -20.51853 -20.51715 -15.59570
 Alpha  occ. eigenvalues --  -15.58013 -15.57581 -15.57508 -11.35932 -11.34327
 Alpha  occ. eigenvalues --  -11.33857 -11.33791 -11.28987 -11.28639 -11.25101
 Alpha  occ. eigenvalues --  -11.24853 -11.24323 -11.23979 -11.23506 -11.22900
 Alpha  occ. eigenvalues --  -11.22608 -11.22291 -11.22188 -11.22136 -11.21967
 Alpha  occ. eigenvalues --  -11.21835 -11.21834 -11.20778  -1.40553  -1.39460
 Alpha  occ. eigenvalues --   -1.38709  -1.38190  -1.25398  -1.23614  -1.22724
 Alpha  occ. eigenvalues --   -1.22052  -1.10705  -1.09250  -1.07177  -1.04273
 Alpha  occ. eigenvalues --   -1.01232  -0.99337  -0.98792  -0.95479  -0.95324
 Alpha  occ. eigenvalues --   -0.94703  -0.92073  -0.87294  -0.85586  -0.82818
 Alpha  occ. eigenvalues --   -0.81204  -0.79578  -0.78639  -0.77156  -0.76965
 Alpha  occ. eigenvalues --   -0.72577  -0.71480  -0.71164  -0.68956  -0.67948
 Alpha  occ. eigenvalues --   -0.66176  -0.65658  -0.64533  -0.63993  -0.63642
 Alpha  occ. eigenvalues --   -0.62589  -0.62436  -0.61764  -0.61485  -0.61109
 Alpha  occ. eigenvalues --   -0.60866  -0.59995  -0.59348  -0.58716  -0.58531
 Alpha  occ. eigenvalues --   -0.58228  -0.57447  -0.57035  -0.56578  -0.56150
 Alpha  occ. eigenvalues --   -0.55267  -0.54880  -0.54617  -0.54517  -0.54310
 Alpha  occ. eigenvalues --   -0.53591  -0.52886  -0.52720  -0.52161  -0.51951
 Alpha  occ. eigenvalues --   -0.50996  -0.50724  -0.49816  -0.49321  -0.48803
 Alpha  occ. eigenvalues --   -0.47893  -0.47264  -0.46797  -0.45938  -0.42837
 Alpha  occ. eigenvalues --   -0.41899  -0.41598  -0.41139  -0.39260  -0.38934
 Alpha  occ. eigenvalues --   -0.38382  -0.38301  -0.26418
 Alpha virt. eigenvalues --    0.09663   0.18829   0.19574   0.20054   0.20123
 Alpha virt. eigenvalues --    0.21448   0.21566   0.22969   0.23555   0.23804
 Alpha virt. eigenvalues --    0.25502   0.25710   0.25981   0.26872   0.27574

 Mulliken atomic charges:
              1
     1  C   -0.279072
     2  N   -0.782583
     3  C    0.821575
     4  O   -0.629711
     5  C    0.102523
     6  C   -0.472086
     7  C   -0.333151
     8  C   -0.318493
     9  C   -0.350599
    10  C   -0.204514
    11  C   -0.206118
    12  C   -0.330753
    13  C   -0.315705
    14  C   -0.328159
    15  C    0.092077
    16  C   -0.509896
    17  N   -0.787497
    18  C    0.767300
    19  C   -0.595594
    20  O   -0.613749
    21  C    0.819568
    22  O   -0.640193
    23  N   -0.806205
    24  C   -0.275479
    25  N   -0.843024
    26  C    0.744691
    27  C   -0.588683
    28  O   -0.591907
    29  H    0.186417
    30  H    0.197727
    31  H    0.163016
    32  H    0.391353
    33  H    0.199209
    34  H    0.144777
    35  H    0.211875
    36  H    0.161999
    37  H    0.175865
    38  H    0.165979
    39  H    0.174592
    40  H    0.221234
    41  H    0.179463
    42  H    0.188312
    43  H    0.180646
    44  H    0.175412
    45  H    0.173071
    46  H    0.143156
    47  H    0.194336
    48  H    0.174287
    49  H    0.181346
    50  H    0.184038
    51  H    0.149320
    52  H    0.226696
    53  H    0.389761
    54  H    0.211389
    55  H    0.208722
    56  H    0.176258
    57  H    0.396263
    58  H    0.166648
    59  H    0.197235
    60  H    0.185351
    61  H    0.382523
    62  H    0.218546
    63  H    0.177119
    64  H    0.201495
 Sum of Mulliken atomic charges =   0.00000

 Dipole moment (field-independent basis, Debye):
    X=             -1.3521    Y=             -5.6482    Z=              3.2562  Tot=              6.6583
 Quadrupole moment (field-independent basis, Debye-Ang):
   XX=           -202.9268   YY=           -156.5159   ZZ=           -169.9610
   XY=             28.7487   XZ=              4.9749   YZ=              4.0816

 Normal termination of Gaussian 09 at Thu Dec  5 18:16:09 2019.
