 Gaussian 09, Revision A.02,
 Gaussian 09:  EM64L-G09RevA.02 11-Jun-2009

 ---------------------------------
 #SP HF/6-31G* Geom=(ModRedundant)
 ---------------------------------

 ------------
 paramfit run
 ------------
 Symbolic Z-matrix:
 Charge =  0 Multiplicity = 1

                         Standard orientation:
 ---------------------------------------------------------------------
 Center     Atomic      Atomic             Coordinates (Angstroms)
 Number     Number       Type             X           Y           Z
 ---------------------------------------------------------------------
      1          6    20001001        5.158169   -2.553171    1.152351
      2          7    20001014        4.479876   -1.303320    0.878423
      3          6    20001002        4.556833   -0.749598   -0.354289
      4          8    20001024        4.974812   -1.348957   -1.306028
      5          6    90000001        3.949720    0.656133   -0.511513
      6          6    90000002        4.509359    1.318381   -1.774871
      7          6    90000002        2.399974    0.566978   -0.555559
      8          6    90000002        1.730104   -0.244618   -1.679046
      9          6    90000002        1.619352   -1.770669   -1.490529
     10          6    20001004        0.891660   -2.183490   -0.232625
     11          6    20001004       -0.374440   -2.550112   -0.117136
     12          6    90000002       -1.276651   -2.370799    1.080200
     13          6    90000002       -2.278343   -1.209180    0.950503
     14          6    90000002       -3.243240   -1.388003   -0.229289
     15          6    90000002       -4.415793   -0.383010   -0.369838
     16          6    90000002       -5.184825   -0.742408   -1.651585
     17          7    20001014       -5.295294   -0.532345    0.781556
     18          6    20001002       -6.335897    0.323537    0.999884
     19          6    20001001       -6.910488    0.285151    2.397445
     20          8    20001024       -6.767512    1.053759    0.151576
     21          6    20001002       -3.838866    1.050754   -0.355608
     22          8    20001024       -3.598982    1.597089    0.687417
     23          7    20001014       -3.526299    1.607526   -1.545687
     24          6    20001001       -3.029520    2.966794   -1.607326
     25          7    20001014        4.241910    1.476298    0.673133
     26          6    20001002        5.504081    1.777649    1.092400
     27          6    20001001        5.595055    2.906248    2.098434
     28          8    20001024        6.472225    1.187064    0.705042
     29          1    20001035        6.235640   -2.447249    1.099564
     30          1    20001035        4.851171   -3.299913    0.434819
     31          1    20001035        4.881384   -2.886406    2.144671
     32          1    20001029        4.351205   -0.677995    1.639146
     33          1    20001034        4.319885    0.714796   -2.649352
     34          1    20001034        4.045807    2.291294   -1.908280
     35          1    20001034        5.578644    1.446541   -1.690419
     36          1    20001034        2.050148    1.592650   -0.649565
     37          1    20001034        2.048061    0.212862    0.408308
     38          1    20001034        0.721428    0.145187   -1.780245
     39          1    20001034        2.225079   -0.048147   -2.624442
     40          1    20001034        2.605156   -2.217382   -1.491865
     41          1    20001034        1.111067   -2.164944   -2.363470
     42          1    20001033        1.488126   -2.177260    0.665318
     43          1    20001033       -0.828451   -3.030166   -0.969886
     44          1    20001034       -0.686898   -2.211690    1.974819
     45          1    20001034       -1.826858   -3.297147    1.240652
     46          1    20001034       -2.823158   -1.136401    1.887655
     47          1    20001034       -1.735478   -0.278718    0.848680
     48          1    20001034       -3.689041   -2.379339   -0.184044
     49          1    20001034       -2.674814   -1.345172   -1.150923
     50          1    20001034       -5.634513   -1.720167   -1.523722
     51          1    20001034       -4.518898   -0.800366   -2.506315
     52          1    20001034       -5.972967   -0.033297   -1.855871
     53          1    20001029       -4.859842   -0.875946    1.606802
     54          1    20001034       -7.913617    0.683167    2.378076
     55          1    20001034       -6.299429    0.911921    3.040013
     56          1    20001034       -6.920720   -0.719027    2.807205
     57          1    20001029       -3.950751    1.241402   -2.364897
     58          1    20001035       -2.727359    3.178406   -2.624598
     59          1    20001035       -2.174058    3.072420   -0.956438
     60          1    20001035       -3.783382    3.685310   -1.302075
     61          1    20001029        3.522294    2.108118    0.946088
     62          1    20001034        6.522397    2.813189    2.644648
     63          1    20001034        4.761121    2.906820    2.791330
     64          1    20001034        5.598459    3.854484    1.570572
 ---------------------------------------------------------------------

 SCF Done:  E(RHF) =  -1295.60529499     A.U. after   14 cycles

 The electronic state is 1-A.
 Alpha  occ. eigenvalues --  -20.53566 -20.52366 -20.52117 -20.51804 -15.59519
 Alpha  occ. eigenvalues --  -15.58441 -15.57850 -15.57473 -11.35879 -11.34569
 Alpha  occ. eigenvalues --  -11.34176 -11.33812 -11.28977 -11.28912 -11.25656
 Alpha  occ. eigenvalues --  -11.24846 -11.24240 -11.23940 -11.23679 -11.22886
 Alpha  occ. eigenvalues --  -11.22857 -11.22829 -11.22811 -11.22357 -11.22167
 Alpha  occ. eigenvalues --  -11.22075 -11.21804 -11.20844  -1.40506  -1.39786
 Alpha  occ. eigenvalues --   -1.38661  -1.38517  -1.25354  -1.23890  -1.23152
 Alpha  occ. eigenvalues --   -1.22020  -1.10794  -1.09454  -1.07299  -1.04554
 Alpha  occ. eigenvalues --   -1.01319  -0.99438  -0.98966  -0.95639  -0.95467
 Alpha  occ. eigenvalues --   -0.95011  -0.91944  -0.87398  -0.85603  -0.82949
 Alpha  occ. eigenvalues --   -0.81135  -0.79904  -0.78601  -0.77326  -0.77122
 Alpha  occ. eigenvalues --   -0.73872  -0.71838  -0.71130  -0.69012  -0.68181
 Alpha  occ. eigenvalues --   -0.65860  -0.65480  -0.64738  -0.64329  -0.63619
 Alpha  occ. eigenvalues --   -0.62529  -0.62398  -0.61962  -0.61804  -0.61167
 Alpha  occ. eigenvalues --   -0.60974  -0.60164  -0.59265  -0.59181  -0.58931
 Alpha  occ. eigenvalues --   -0.58151  -0.57850  -0.56750  -0.56541  -0.56498
 Alpha  occ. eigenvalues --   -0.55729  -0.55195  -0.54978  -0.54543  -0.54215
 Alpha  occ. eigenvalues --   -0.53520  -0.53018  -0.52601  -0.52315  -0.51724
 Alpha  occ. eigenvalues --   -0.50982  -0.50779  -0.50126  -0.49288  -0.48792
 Alpha  occ. eigenvalues --   -0.48321  -0.46978  -0.46432  -0.45626  -0.42808
 Alpha  occ. eigenvalues --   -0.41926  -0.41880  -0.41392  -0.39295  -0.39223
 Alpha  occ. eigenvalues --   -0.38755  -0.38266  -0.32893
 Alpha virt. eigenvalues --    0.16106   0.18881   0.19253   0.20004   0.20111
 Alpha virt. eigenvalues --    0.21162   0.21370   0.22814   0.23437   0.24069
 Alpha virt. eigenvalues --    0.24955   0.25502   0.26023   0.27036   0.27119

 Mulliken atomic charges:
              1
     1  C   -0.279770
     2  N   -0.783189
     3  C    0.822132
     4  O   -0.628870
     5  C    0.102094
     6  C   -0.472945
     7  C   -0.335070
     8  C   -0.310364
     9  C   -0.362070
    10  C   -0.179424
    11  C   -0.177316
    12  C   -0.342676
    13  C   -0.307578
    14  C   -0.328940
    15  C    0.089740
    16  C   -0.509960
    17  N   -0.786899
    18  C    0.767147
    19  C   -0.595754
    20  O   -0.613822
    21  C    0.820195
    22  O   -0.641307
    23  N   -0.806491
    24  C   -0.274343
    25  N   -0.843069
    26  C    0.744308
    27  C   -0.588761
    28  O   -0.592256
    29  H    0.186842
    30  H    0.197725
    31  H    0.162904
    32  H    0.391787
    33  H    0.197626
    34  H    0.144153
    35  H    0.212730
    36  H    0.162503
    37  H    0.184361
    38  H    0.165457
    39  H    0.181173
    40  H    0.206288
    41  H    0.166615
    42  H    0.179639
    43  H    0.170223
    44  H    0.170311
    45  H    0.155354
    46  H    0.153708
    47  H    0.191330
    48  H    0.176381
    49  H    0.185276
    50  H    0.185573
    51  H    0.149096
    52  H    0.226660
    53  H    0.389669
    54  H    0.211911
    55  H    0.208164
    56  H    0.177461
    57  H    0.397054
    58  H    0.166006
    59  H    0.192845
    60  H    0.186662
    61  H    0.383720
    62  H    0.218338
    63  H    0.178369
    64  H    0.201345
 Sum of Mulliken atomic charges =   0.00000

 Dipole moment (field-independent basis, Debye):
    X=             -2.0027    Y=              0.7545    Z=              2.4982  Tot=              3.2896
 Quadrupole moment (field-independent basis, Debye-Ang):
   XX=           -225.0787   YY=           -165.2467   ZZ=           -157.4128
   XY=             27.0020   XZ=             16.7675   YZ=             -7.2908

 Normal termination of Gaussian 09 at Thu Dec  5 17:24:49 2019.
