 Gaussian 09, Revision A.02,
 Gaussian 09:  EM64L-G09RevA.02 11-Jun-2009

 ---------------------------------
 #SP HF/6-31G* Geom=(ModRedundant)
 ---------------------------------

 ------------
 paramfit run
 ------------
 Symbolic Z-matrix:
 Charge =  0 Multiplicity = 1

                         Standard orientation:
 ---------------------------------------------------------------------
 Center     Atomic      Atomic             Coordinates (Angstroms)
 Number     Number       Type             X           Y           Z
 ---------------------------------------------------------------------
      1          6    20001001        5.177504    2.848614    0.375789
      2          7    20001014        4.722698    1.553625   -0.086166
      3          6    20001002        4.469609    0.568903    0.807353
      4          8    20001024        4.386757    0.773341    1.986796
      5          6    90000001        4.153675   -0.819755    0.223227
      6          6    90000002        4.352029   -1.888082    1.303585
      7          6    90000002        2.707604   -0.845144   -0.342314
      8          6    90000002        1.528365   -0.575840    0.609793
      9          6    90000002        1.176377    0.893830    0.914447
     10          6    20001004        0.874992    1.720993   -0.313253
     11          6    20001004       -0.313761    2.029294   -0.805772
     12          6    90000002       -1.116771    1.251791   -1.820867
     13          6    90000002       -2.273809    0.432806   -1.220790
     14          6    90000002       -3.311100    1.308891   -0.505655
     15          6    90000002       -4.616550    0.634365   -0.010216
     16          6    90000002       -5.445712    1.705107    0.717419
     17          7    20001014       -5.357049    0.150949   -1.167584
     18          6    20001002       -6.478865   -0.613948   -1.027881
     19          6    20001001       -6.910691   -1.346524   -2.277546
     20          8    20001024       -7.082035   -0.702760    0.005290
     21          6    20001002       -4.239690   -0.581823    0.865905
     22          8    20001024       -3.979934   -1.638561    0.356238
     23          7    20001014       -4.117065   -0.376964    2.195183
     24          6    20001001       -3.816257   -1.484159    3.079398
     25          7    20001014        5.012400   -1.095085   -0.937900
     26          6    20001002        6.374250   -1.135287   -0.879431
     27          6    20001001        7.050420   -1.775409   -2.074069
     28          8    20001024        6.995254   -0.687026    0.042283
     29          1    20001035        6.162374    2.793387    0.825156
     30          1    20001035        4.486814    3.237577    1.109532
     31          1    20001035        5.208981    3.525395   -0.468799
     32          1    20001029        5.006550    1.267739   -0.993901
     33          1    20001034        3.742401   -1.685007    2.170792
     34          1    20001034        4.085112   -2.861282    0.902494
     35          1    20001034        5.382912   -1.910759    1.625597
     36          1    20001034        2.569312   -1.844871   -0.748076
     37          1    20001034        2.656162   -0.164627   -1.186428
     38          1    20001034        0.654729   -1.032248    0.153646
     39          1    20001034        1.683840   -1.095938    1.549313
     40          1    20001034        1.980826    1.361267    1.467373
     41          1    20001034        0.320503    0.886565    1.580224
     42          1    20001033        1.739189    2.099800   -0.834579
     43          1    20001033       -0.776023    2.935655   -0.447187
     44          1    20001034       -0.473379    0.576496   -2.371767
     45          1    20001034       -1.519558    1.951111   -2.552514
     46          1    20001034       -2.734038   -0.129816   -2.028267
     47          1    20001034       -1.873374   -0.302913   -0.535808
     48          1    20001034       -3.612821    2.121094   -1.163551
     49          1    20001034       -2.841748    1.766583    0.357233
     50          1    20001034       -5.745426    2.459267   -0.000909
     51          1    20001034       -4.860355    2.201483    1.484458
     52          1    20001034       -6.337918    1.286870    1.158764
     53          1    20001029       -4.804438   -0.063981   -1.965794
     54          1    20001034       -7.955798   -1.602924   -2.193446
     55          1    20001034       -6.332838   -2.262279   -2.358794
     56          1    20001034       -6.747140   -0.757251   -3.173309
     57          1    20001029       -4.562435    0.415211    2.594450
     58          1    20001035       -3.641244   -1.094591    4.073646
     59          1    20001035       -2.926166   -1.992064    2.738229
     60          1    20001035       -4.628589   -2.202884    3.115502
     61          1    20001029        4.585694   -1.611356   -1.674740
     62          1    20001034        8.070183   -1.423115   -2.128332
     63          1    20001034        6.537388   -1.554517   -3.003346
     64          1    20001034        7.063390   -2.852430   -1.941180
 ---------------------------------------------------------------------

 SCF Done:  E(RHF) =  -1295.44940059     A.U. after   20 cycles

 The electronic state is 1-A.
 Alpha  occ. eigenvalues --  -20.53584 -20.52193 -20.51828 -20.51750 -15.59536
 Alpha  occ. eigenvalues --  -15.58093 -15.57676 -15.57439 -11.35903 -11.34399
 Alpha  occ. eigenvalues --  -11.33887 -11.33763 -11.28948 -11.28675 -11.25200
 Alpha  occ. eigenvalues --  -11.24872 -11.24293 -11.23871 -11.23384 -11.23189
 Alpha  occ. eigenvalues --  -11.23093 -11.23033 -11.22802 -11.22676 -11.22421
 Alpha  occ. eigenvalues --  -11.21965 -11.21854 -11.20805  -1.40519  -1.39554
 Alpha  occ. eigenvalues --   -1.38609  -1.38285  -1.25355  -1.23700  -1.22810
 Alpha  occ. eigenvalues --   -1.21996  -1.10894  -1.09376  -1.07276  -1.04458
 Alpha  occ. eigenvalues --   -1.01410  -0.99404  -0.98886  -0.95476  -0.95370
 Alpha  occ. eigenvalues --   -0.94760  -0.92097  -0.87342  -0.85543  -0.82871
 Alpha  occ. eigenvalues --   -0.81174  -0.79661  -0.78672  -0.77095  -0.77053
 Alpha  occ. eigenvalues --   -0.73143  -0.71586  -0.71129  -0.68972  -0.68000
 Alpha  occ. eigenvalues --   -0.65979  -0.65495  -0.64551  -0.64161  -0.63659
 Alpha  occ. eigenvalues --   -0.62519  -0.62456  -0.61889  -0.61599  -0.61169
 Alpha  occ. eigenvalues --   -0.60919  -0.60110  -0.59335  -0.58804  -0.58703
 Alpha  occ. eigenvalues --   -0.58195  -0.57498  -0.57139  -0.56663  -0.56199
 Alpha  occ. eigenvalues --   -0.55355  -0.54907  -0.54664  -0.54568  -0.54329
 Alpha  occ. eigenvalues --   -0.53902  -0.53067  -0.52643  -0.52263  -0.51867
 Alpha  occ. eigenvalues --   -0.50980  -0.50864  -0.49903  -0.49215  -0.48855
 Alpha  occ. eigenvalues --   -0.47898  -0.47426  -0.46911  -0.46154  -0.42809
 Alpha  occ. eigenvalues --   -0.41859  -0.41681  -0.41209  -0.39207  -0.39023
 Alpha  occ. eigenvalues --   -0.38469  -0.38233  -0.23285
 Alpha virt. eigenvalues --    0.06766   0.18858   0.19497   0.19986   0.20140
 Alpha virt. eigenvalues --    0.21220   0.21468   0.22882   0.23324   0.23773
 Alpha virt. eigenvalues --    0.25464   0.25731   0.25958   0.27017   0.27420

 Mulliken atomic charges:
              1
     1  C   -0.279801
     2  N   -0.782592
     3  C    0.822820
     4  O   -0.628350
     5  C    0.101932
     6  C   -0.473281
     7  C   -0.334560
     8  C   -0.312895
     9  C   -0.343515
    10  C   -0.195526
    11  C   -0.210920
    12  C   -0.319893
    13  C   -0.308577
    14  C   -0.325582
    15  C    0.087905
    16  C   -0.509850
    17  N   -0.786663
    18  C    0.767385
    19  C   -0.595777
    20  O   -0.613453
    21  C    0.820551
    22  O   -0.642064
    23  N   -0.805805
    24  C   -0.275282
    25  N   -0.842939
    26  C    0.744553
    27  C   -0.588666
    28  O   -0.592013
    29  H    0.186912
    30  H    0.196945
    31  H    0.162354
    32  H    0.391399
    33  H    0.197563
    34  H    0.144974
    35  H    0.212545
    36  H    0.162017
    37  H    0.183729
    38  H    0.170860
    39  H    0.189265
    40  H    0.197152
    41  H    0.163324
    42  H    0.190575
    43  H    0.181391
    44  H    0.161719
    45  H    0.142577
    46  H    0.158787
    47  H    0.194805
    48  H    0.174896
    49  H    0.187702
    50  H    0.184528
    51  H    0.150055
    52  H    0.226400
    53  H    0.388620
    54  H    0.211691
    55  H    0.208191
    56  H    0.176752
    57  H    0.396658
    58  H    0.166878
    59  H    0.196319
    60  H    0.185390
    61  H    0.382712
    62  H    0.218411
    63  H    0.177285
    64  H    0.201480
 Sum of Mulliken atomic charges =   0.00000

 Dipole moment (field-independent basis, Debye):
    X=              0.5601    Y=              0.7154    Z=             -5.7168  Tot=              5.7886
 Quadrupole moment (field-independent basis, Debye-Ang):
   XX=           -208.7216   YY=           -165.4859   ZZ=           -159.6395
   XY=            -17.6873   XZ=            -24.8646   YZ=              3.7088

 Normal termination of Gaussian 09 at Thu Dec  5 18:02:52 2019.
