 Gaussian 09, Revision A.02,
 Gaussian 09:  EM64L-G09RevA.02 11-Jun-2009

 ---------------------------------
 #SP HF/6-31G* Geom=(ModRedundant)
 ---------------------------------

 ------------
 paramfit run
 ------------
 Symbolic Z-matrix:
 Charge =  0 Multiplicity = 1

                         Standard orientation:
 ---------------------------------------------------------------------
 Center     Atomic      Atomic             Coordinates (Angstroms)
 Number     Number       Type             X           Y           Z
 ---------------------------------------------------------------------
      1          6    20001001       -4.792344    1.994786    2.241341
      2          7    20001014       -4.615431    0.846176    1.377256
      3          6    20001002       -4.410093    1.024257    0.051272
      4          8    20001024       -4.143093    2.093836   -0.422499
      5          6    90000001       -4.399966   -0.247468   -0.815907
      6          6    90000002       -4.625521    0.130489   -2.283598
      7          6    90000002       -3.062568   -1.013427   -0.625444
      8          6    90000002       -1.741911   -0.313448   -0.993589
      9          6    90000002       -1.121776    0.637750    0.049144
     10          6    20001004       -0.853294   -0.008598    1.387960
     11          6    20001004        0.295443   -0.489337    1.835231
     12          6    90000002        1.125846   -1.595459    1.229691
     13          6    90000002        2.356359   -1.106756    0.444470
     14          6    90000002        3.345007   -0.324476    1.319413
     15          6    90000002        4.709903    0.072359    0.699552
     16          6    90000002        5.476988    0.891431    1.750340
     17          7    20001014        5.452308   -1.143335    0.395487
     18          6    20001002        6.631126   -1.106077   -0.291576
     19          6    20001001        7.081770   -2.433524   -0.856915
     20          8    20001024        7.267211   -0.099759   -0.439442
     21          6    20001002        4.448289    0.823998   -0.625332
     22          8    20001024        4.253747    0.212029   -1.640998
     23          7    20001014        4.347167    2.169529   -0.567866
     24          6    20001001        4.153511    2.939106   -1.779662
     25          7    20001014       -5.435120   -1.186883   -0.360509
     26          6    20001002       -6.766468   -0.892593   -0.336474
     27          6    20001001       -7.685980   -2.086022   -0.180452
     28          8    20001024       -7.182405    0.228190   -0.420037
     29          1    20001035       -5.706523    2.531887    2.016068
     30          1    20001035       -3.958808    2.671656    2.123916
     31          1    20001035       -4.823990    1.653156    3.268298
     32          1    20001029       -5.056920   -0.001002    1.648660
     33          1    20001034       -3.883852    0.836984   -2.623781
     34          1    20001034       -4.572827   -0.762804   -2.898810
     35          1    20001034       -5.596019    0.587876   -2.409524
     36          1    20001034       -3.140595   -1.899253   -1.251898
     37          1    20001034       -3.012422   -1.368955    0.398941
     38          1    20001034       -1.019675   -1.101489   -1.185900
     39          1    20001034       -1.855682    0.225402   -1.928507
     40          1    20001034       -1.761984    1.498337    0.193669
     41          1    20001034       -0.199120    1.018996   -0.374167
     42          1    20001033       -1.705632   -0.074337    2.044703
     43          1    20001033        0.698878   -0.047230    2.732751
     44          1    20001034        0.519469   -2.201159    0.567196
     45          1    20001034        1.455561   -2.257867    2.029127
     46          1    20001034        2.834795   -1.977336    0.004511
     47          1    20001034        2.030411   -0.494592   -0.386100
     48          1    20001034        3.567618   -0.899804    2.215502
     49          1    20001034        2.866766    0.590433    1.648923
     50          1    20001034        5.700250    0.249996    2.594908
     51          1    20001034        4.877618    1.717328    2.119165
     52          1    20001034        6.409458    1.269266    1.358576
     53          1    20001029        4.895554   -1.948691    0.221883
     54          1    20001034        8.144911   -2.397012   -1.039832
     55          1    20001034        6.571376   -2.598587   -1.801043
     56          1    20001034        6.850590   -3.259566   -0.193144
     57          1    20001029        4.743338    2.640506    0.210941
     58          1    20001035        3.977325    3.971790   -1.508658
     59          1    20001035        3.294527    2.564222   -2.316539
     60          1    20001035        5.017560    2.884198   -2.434000
     61          1    20001029       -5.196224   -2.151646   -0.421406
     62          1    20001034       -8.634171   -1.747413    0.211022
     63          1    20001034       -7.269124   -2.842602    0.474809
     64          1    20001034       -7.854518   -2.535427   -1.153813
 ---------------------------------------------------------------------

 SCF Done:  E(RHF) =  -1295.53888630     A.U. after   15 cycles

 The electronic state is 1-A.
 Alpha  occ. eigenvalues --  -20.53620 -20.52098 -20.51855 -20.51681 -15.59577
 Alpha  occ. eigenvalues --  -15.57972 -15.57565 -15.57516 -11.35939 -11.34308
 Alpha  occ. eigenvalues --  -11.33861 -11.33758 -11.28996 -11.28618 -11.25052
 Alpha  occ. eigenvalues --  -11.24867 -11.24330 -11.23986 -11.23485 -11.22830
 Alpha  occ. eigenvalues --  -11.22588 -11.22345 -11.22211 -11.22116 -11.21944
 Alpha  occ. eigenvalues --  -11.21818 -11.21763 -11.20789  -1.40559  -1.39434
 Alpha  occ. eigenvalues --   -1.38712  -1.38162  -1.25405  -1.23596  -1.22685
 Alpha  occ. eigenvalues --   -1.22060  -1.10712  -1.09247  -1.07166  -1.04251
 Alpha  occ. eigenvalues --   -1.01223  -0.99329  -0.98776  -0.95489  -0.95287
 Alpha  occ. eigenvalues --   -0.94668  -0.92090  -0.87297  -0.85589  -0.82823
 Alpha  occ. eigenvalues --   -0.81205  -0.79551  -0.78634  -0.77163  -0.76935
 Alpha  occ. eigenvalues --   -0.72463  -0.71448  -0.71168  -0.68955  -0.67941
 Alpha  occ. eigenvalues --   -0.66311  -0.65705  -0.64526  -0.63943  -0.63657
 Alpha  occ. eigenvalues --   -0.62598  -0.62428  -0.61737  -0.61455  -0.61088
 Alpha  occ. eigenvalues --   -0.60866  -0.59961  -0.59345  -0.58691  -0.58504
 Alpha  occ. eigenvalues --   -0.58230  -0.57509  -0.56908  -0.56549  -0.56137
 Alpha  occ. eigenvalues --   -0.55258  -0.54862  -0.54634  -0.54558  -0.54304
 Alpha  occ. eigenvalues --   -0.53431  -0.52784  -0.52727  -0.52113  -0.51962
 Alpha  occ. eigenvalues --   -0.51003  -0.50684  -0.49793  -0.49343  -0.48838
 Alpha  occ. eigenvalues --   -0.47985  -0.47212  -0.46639  -0.45809  -0.42841
 Alpha  occ. eigenvalues --   -0.41903  -0.41572  -0.41118  -0.39266  -0.38904
 Alpha  occ. eigenvalues --   -0.38349  -0.38308  -0.28123
 Alpha virt. eigenvalues --    0.11286   0.18823   0.19603   0.20048   0.20143
 Alpha virt. eigenvalues --    0.21501   0.21634   0.22992   0.23626   0.23770
 Alpha virt. eigenvalues --    0.25453   0.25737   0.26017   0.26833   0.27648

 Mulliken atomic charges:
              1
     1  C   -0.279152
     2  N   -0.782736
     3  C    0.821595
     4  O   -0.629469
     5  C    0.102557
     6  C   -0.472211
     7  C   -0.333531
     8  C   -0.317858
     9  C   -0.355674
    10  C   -0.199740
    11  C   -0.199189
    12  C   -0.335839
    13  C   -0.315658
    14  C   -0.328577
    15  C    0.092021
    16  C   -0.509885
    17  N   -0.787535
    18  C    0.767316
    19  C   -0.595610
    20  O   -0.613720
    21  C    0.819627
    22  O   -0.640166
    23  N   -0.805994
    24  C   -0.275476
    25  N   -0.842999
    26  C    0.744670
    27  C   -0.588692
    28  O   -0.591889
    29  H    0.186532
    30  H    0.197693
    31  H    0.162947
    32  H    0.391409
    33  H    0.199324
    34  H    0.144588
    35  H    0.211985
    36  H    0.161625
    37  H    0.177276
    38  H    0.164943
    39  H    0.175998
    40  H    0.219984
    41  H    0.180265
    42  H    0.186036
    43  H    0.178205
    44  H    0.176017
    45  H    0.171257
    46  H    0.144555
    47  H    0.195439
    48  H    0.174029
    49  H    0.182409
    50  H    0.183873
    51  H    0.149340
    52  H    0.226695
    53  H    0.389715
    54  H    0.211356
    55  H    0.208855
    56  H    0.176197
    57  H    0.396135
    58  H    0.166588
    59  H    0.197639
    60  H    0.185192
    61  H    0.382539
    62  H    0.218562
    63  H    0.177161
    64  H    0.201452
 Sum of Mulliken atomic charges =   0.00000

 Dipole moment (field-independent basis, Debye):
    X=             -1.7228    Y=             -5.7336    Z=              3.6864  Tot=              7.0308
 Quadrupole moment (field-independent basis, Debye-Ang):
   XX=           -200.4185   YY=           -156.5742   ZZ=           -170.2887
   XY=             27.8816   XZ=              2.2704   YZ=              5.6656

 Normal termination of Gaussian 09 at Thu Dec  5 17:08:29 2019.
