 Gaussian 09, Revision A.02,
 Gaussian 09:  EM64L-G09RevA.02 11-Jun-2009

 ---------------------------------
 #SP HF/6-31G* Geom=(ModRedundant)
 ---------------------------------

 ------------
 paramfit run
 ------------
 Symbolic Z-matrix:
 Charge =  0 Multiplicity = 1

                         Standard orientation:
 ---------------------------------------------------------------------
 Center     Atomic      Atomic             Coordinates (Angstroms)
 Number     Number       Type             X           Y           Z
 ---------------------------------------------------------------------
      1          6    20001001       -3.619038    2.754857    0.991760
      2          7    20001014       -4.002696    1.373067    0.789990
      3          6    20001002       -4.133121    0.885208   -0.465833
      4          8    20001024       -3.731832    1.473443   -1.431593
      5          6    90000001       -4.704493   -0.538671   -0.590294
      6          6    90000002       -5.218332   -0.762513   -2.016374
      7          6    90000002       -3.622541   -1.584095   -0.205493
      8          6    90000002       -2.318578   -1.644453   -1.021381
      9          6    90000002       -1.202720   -0.643491   -0.661414
     10          6    20001004       -0.756818   -0.712264    0.780363
     11          6    20001004        0.298557   -1.343578    1.268610
     12          6    90000002        1.318745   -2.153178    0.504728
     13          6    90000002        2.523084   -1.339276   -0.001927
     14          6    90000002        3.324410   -0.695419    1.137476
     15          6    90000002        4.662091    0.003933    0.782284
     16          6    90000002        5.226472    0.612220    2.076467
     17          7    20001014        5.588474   -0.998056    0.273007
     18          6    20001002        6.797964   -0.648544   -0.254279
     19          6    20001001        7.471352   -1.725447   -1.073812
     20          8    20001024        7.295462    0.429747   -0.084201
     21          6    20001002        4.396264    1.032466   -0.340293
     22          8    20001024        4.365438    0.681277   -1.489052
     23          7    20001014        4.103030    2.297322    0.031371
     24          6    20001001        3.893399    3.322216   -0.970551
     25          7    20001014       -5.784886   -0.744725    0.385269
     26          6    20001002       -6.928021   -0.001809    0.416717
     27          6    20001001       -8.052668   -0.587277    1.245280
     28          8    20001024       -7.035070    1.044446   -0.157766
     29          1    20001035       -4.381343    3.440510    0.640023
     30          1    20001035       -2.701270    2.960115    0.460447
     31          1    20001035       -3.454992    2.917103    2.049644
     32          1    20001029       -4.561582    0.947742    1.492151
     33          1    20001034       -4.439159   -0.593052   -2.743769
     34          1    20001034       -5.579304   -1.781990   -2.114367
     35          1    20001034       -6.026402   -0.080280   -2.236620
     36          1    20001034       -4.105258   -2.554129   -0.301604
     37          1    20001034       -3.387449   -1.464486    0.847458
     38          1    20001034       -1.916305   -2.643951   -0.884275
     39          1    20001034       -2.538521   -1.550988   -2.079805
     40          1    20001034       -1.523129    0.365823   -0.884989
     41          1    20001034       -0.366618   -0.845140   -1.321796
     42          1    20001033       -1.378889   -0.176379    1.478909
     43          1    20001033        0.463668   -1.277949    2.332655
     44          1    20001034        0.854279   -2.636817   -0.346055
     45          1    20001034        1.678180   -2.954064    1.149695
     46          1    20001034        3.150403   -2.006404   -0.586551
     47          1    20001034        2.176737   -0.578231   -0.688720
     48          1    20001034        3.558702   -1.449963    1.885341
     49          1    20001034        2.699231    0.042444    1.626414
     50          1    20001034        5.474516   -0.192557    2.758662
     51          1    20001034        4.491306    1.240390    2.568720
     52          1    20001034        6.122999    1.184347    1.890324
     53          1    20001029        5.164859   -1.792166   -0.149666
     54          1    20001034        8.529402   -1.518816   -1.127603
     55          1    20001034        7.060566   -1.703074   -2.078739
     56          1    20001034        7.310066   -2.714702   -0.659390
     57          1    20001029        4.370284    2.597291    0.939064
     58          1    20001035        3.554217    4.223533   -0.477089
     59          1    20001035        3.137786    2.998385   -1.671128
     60          1    20001035        4.802652    3.537934   -1.522348
     61          1    20001029       -5.839502   -1.657687    0.779053
     62          1    20001034       -8.728515    0.206858    1.527333
     63          1    20001034       -7.688830   -1.090589    2.134015
     64          1    20001034       -8.598278   -1.308923    0.645833
 ---------------------------------------------------------------------

 SCF Done:  E(RHF) =  -1295.62177482     A.U. after   14 cycles

 The electronic state is 1-A.
 Alpha  occ. eigenvalues --  -20.53649 -20.51986 -20.51855 -20.51505 -15.59606
 Alpha  occ. eigenvalues --  -15.57798 -15.57549 -15.57453 -11.35968 -11.34194
 Alpha  occ. eigenvalues --  -11.33867 -11.33589 -11.29023 -11.28479 -11.24928
 Alpha  occ. eigenvalues --  -11.24862 -11.24358 -11.23995 -11.23286 -11.22689
 Alpha  occ. eigenvalues --  -11.22533 -11.22469 -11.22315 -11.22187 -11.21992
 Alpha  occ. eigenvalues --  -11.21724 -11.21587 -11.20843  -1.40587  -1.39293
 Alpha  occ. eigenvalues --   -1.38713  -1.38014  -1.25432  -1.23477  -1.22512
 Alpha  occ. eigenvalues --   -1.22094  -1.10756  -1.09217  -1.07141  -1.04179
 Alpha  occ. eigenvalues --   -1.01189  -0.99304  -0.98685  -0.95537  -0.95093
 Alpha  occ. eigenvalues --   -0.94511  -0.92151  -0.87281  -0.85640  -0.82824
 Alpha  occ. eigenvalues --   -0.81298  -0.79408  -0.78730  -0.77192  -0.76787
 Alpha  occ. eigenvalues --   -0.71830  -0.71250  -0.71058  -0.68916  -0.67924
 Alpha  occ. eigenvalues --   -0.66800  -0.65849  -0.64462  -0.63905  -0.63605
 Alpha  occ. eigenvalues --   -0.62603  -0.62368  -0.61671  -0.61341  -0.61092
 Alpha  occ. eigenvalues --   -0.60869  -0.59893  -0.59315  -0.58681  -0.58369
 Alpha  occ. eigenvalues --   -0.58231  -0.57765  -0.56558  -0.56380  -0.56222
 Alpha  occ. eigenvalues --   -0.55459  -0.54762  -0.54693  -0.54574  -0.53974
 Alpha  occ. eigenvalues --   -0.53063  -0.52818  -0.52419  -0.52055  -0.51513
 Alpha  occ. eigenvalues --   -0.51029  -0.50302  -0.49741  -0.49176  -0.48415
 Alpha  occ. eigenvalues --   -0.48333  -0.46905  -0.46365  -0.44549  -0.42868
 Alpha  occ. eigenvalues --   -0.41942  -0.41425  -0.40998  -0.39290  -0.38755
 Alpha  occ. eigenvalues --   -0.38331  -0.38188  -0.34474
 Alpha virt. eigenvalues --    0.17205   0.18801   0.19721   0.19992   0.20247
 Alpha virt. eigenvalues --    0.21683   0.21900   0.23146   0.23278   0.23883
 Alpha virt. eigenvalues --    0.25281   0.25616   0.26603   0.27347   0.27451

 Mulliken atomic charges:
              1
     1  C   -0.279556
     2  N   -0.783384
     3  C    0.821837
     4  O   -0.628095
     5  C    0.102267
     6  C   -0.472828
     7  C   -0.334327
     8  C   -0.312272
     9  C   -0.374587
    10  C   -0.176295
    11  C   -0.183813
    12  C   -0.352587
    13  C   -0.310620
    14  C   -0.327116
    15  C    0.090432
    16  C   -0.509588
    17  N   -0.787494
    18  C    0.767314
    19  C   -0.595680
    20  O   -0.613848
    21  C    0.820815
    22  O   -0.639801
    23  N   -0.805758
    24  C   -0.275721
    25  N   -0.843088
    26  C    0.744562
    27  C   -0.588678
    28  O   -0.591807
    29  H    0.187049
    30  H    0.197907
    31  H    0.162183
    32  H    0.391388
    33  H    0.199125
    34  H    0.144155
    35  H    0.212483
    36  H    0.161448
    37  H    0.182155
    38  H    0.164578
    39  H    0.180346
    40  H    0.213410
    41  H    0.176596
    42  H    0.180520
    43  H    0.170396
    44  H    0.177055
    45  H    0.160378
    46  H    0.149957
    47  H    0.199708
    48  H    0.172179
    49  H    0.186927
    50  H    0.183265
    51  H    0.148704
    52  H    0.226430
    53  H    0.389664
    54  H    0.211069
    55  H    0.209382
    56  H    0.176122
    57  H    0.395232
    58  H    0.165046
    59  H    0.200354
    60  H    0.184649
    61  H    0.382653
    62  H    0.218591
    63  H    0.177201
    64  H    0.201408
 Sum of Mulliken atomic charges =   0.00000

 Dipole moment (field-independent basis, Debye):
    X=             -3.0961    Y=             -5.1059    Z=              5.9696  Tot=              8.4434
 Quadrupole moment (field-independent basis, Debye-Ang):
   XX=           -186.9422   YY=           -158.5144   ZZ=           -172.4882
   XY=             14.3454   XZ=            -13.5637   YZ=             10.4363

 Normal termination of Gaussian 09 at Thu Dec  5 18:31:13 2019.
