 Gaussian 09, Revision A.02,
 Gaussian 09:  EM64L-G09RevA.02 11-Jun-2009

 ---------------------------------
 #SP HF/6-31G* Geom=(ModRedundant)
 ---------------------------------

 ------------
 paramfit run
 ------------
 Symbolic Z-matrix:
 Charge =  0 Multiplicity = 1

                         Standard orientation:
 ---------------------------------------------------------------------
 Center     Atomic      Atomic             Coordinates (Angstroms)
 Number     Number       Type             X           Y           Z
 ---------------------------------------------------------------------
      1          6    20001001        3.296653   -0.336343    3.019906
      2          7    20001014        3.523848    0.116001    1.663067
      3          6    20001002        3.165702   -0.669696    0.620704
      4          8    20001024        2.462733   -1.633387    0.750626
      5          6    90000001        3.594025   -0.188271   -0.777207
      6          6    90000002        3.540637   -1.360679   -1.762322
      7          6    90000002        2.686926    0.984286   -1.239682
      8          6    90000002        1.173497    0.744614   -1.387088
      9          6    90000002        0.308161    0.832539   -0.114256
     10          6    20001004        0.418677    2.151324    0.614352
     11          6    20001004       -0.409170    3.181333    0.547217
     12          6    90000002       -1.669893    3.293833   -0.275993
     13          6    90000002       -2.390166    1.955114   -0.518073
     14          6    90000002       -2.845205    1.283294    0.784428
     15          6    90000002       -3.737569    0.019501    0.678780
     16          6    90000002       -3.997221   -0.486806    2.106956
     17          7    20001014       -5.001563    0.394551    0.059760
     18          6    20001002       -5.929167   -0.542857   -0.292197
     19          6    20001001       -6.994075   -0.058086   -1.249157
     20          8    20001024       -5.907611   -1.668247    0.122742
     21          6    20001002       -3.033339   -1.004220   -0.240341
     22          8    20001024       -3.143160   -0.922769   -1.434172
     23          7    20001014       -2.221929   -1.911216    0.345280
     24          6    20001001       -1.571505   -2.930677   -0.452120
     25          7    20001014        4.947333    0.384233   -0.730004
     26          6    20001002        6.051528   -0.314607   -0.340070
     27          6    20001001        7.376888    0.326725   -0.695363
     28          8    20001024        5.982847   -1.354522    0.251538
     29          1    20001035        3.904198   -1.200189    3.264055
     30          1    20001035        2.257148   -0.600818    3.147207
     31          1    20001035        3.537966    0.471954    3.698712
     32          1    20001029        4.283389    0.737413    1.510654
     33          1    20001034        2.556756   -1.803562   -1.789989
     34          1    20001034        3.799319   -1.009031   -2.756638
     35          1    20001034        4.238731   -2.130988   -1.468699
     36          1    20001034        3.061473    1.275921   -2.218397
     37          1    20001034        2.858665    1.831779   -0.583526
     38          1    20001034        0.809464    1.496578   -2.081096
     39          1    20001034        0.994247   -0.214729   -1.861330
     40          1    20001034        0.564824    0.030208    0.565267
     41          1    20001034       -0.719052    0.654739   -0.412677
     42          1    20001033        1.274332    2.246605    1.263112
     43          1    20001033       -0.170481    4.045605    1.147068
     44          1    20001034       -1.451772    3.740423   -1.238514
     45          1    20001034       -2.352164    3.977486    0.227714
     46          1    20001034       -3.237796    2.148944   -1.169478
     47          1    20001034       -1.736500    1.292074   -1.069370
     48          1    20001034       -3.396109    2.001589    1.387828
     49          1    20001034       -1.967253    1.006408    1.356168
     50          1    20001034       -4.581534    0.255958    2.637484
     51          1    20001034       -3.068348   -0.619358    2.651938
     52          1    20001034       -4.550810   -1.413778    2.106973
     53          1    20001029       -4.961835    1.185764   -0.541169
     54          1    20001034       -7.854520   -0.705860   -1.177857
     55          1    20001034       -6.600910   -0.111215   -2.259962
     56          1    20001034       -7.287190    0.966741   -1.048673
     57          1    20001029       -2.343768   -2.099781    1.312187
     58          1    20001035       -0.879368   -3.473170    0.178411
     59          1    20001035       -1.023790   -2.467807   -1.259823
     60          1    20001035       -2.287244   -3.626580   -0.877787
     61          1    20001029        5.105524    1.162498   -1.330691
     62          1    20001034        8.140453   -0.062236   -0.037601
     63          1    20001034        7.343736    1.407686   -0.618071
     64          1    20001034        7.635633    0.067218   -1.716886
 ---------------------------------------------------------------------

 SCF Done:  E(RHF) =  -1295.59678149     A.U. after   14 cycles

 The electronic state is 1-A.
 Alpha  occ. eigenvalues --  -20.53654 -20.51945 -20.51771 -20.51337 -15.59594
 Alpha  occ. eigenvalues --  -15.57616 -15.57387 -15.57215 -11.35968 -11.33982
 Alpha  occ. eigenvalues --  -11.33944 -11.33330 -11.29006 -11.28185 -11.25054
 Alpha  occ. eigenvalues --  -11.24347 -11.24171 -11.23887 -11.22901 -11.22663
 Alpha  occ. eigenvalues --  -11.22501 -11.22318 -11.22229 -11.21953 -11.21848
 Alpha  occ. eigenvalues --  -11.21380 -11.20835 -11.20780  -1.40596  -1.39096
 Alpha  occ. eigenvalues --   -1.38796  -1.37825  -1.25430  -1.23240  -1.22158
 Alpha  occ. eigenvalues --   -1.22102  -1.11258  -1.09026  -1.06860  -1.03836
 Alpha  occ. eigenvalues --   -1.00969  -0.99377  -0.98501  -0.95626  -0.95363
 Alpha  occ. eigenvalues --   -0.94110  -0.92060  -0.87581  -0.85310  -0.82754
 Alpha  occ. eigenvalues --   -0.81046  -0.79115  -0.78625  -0.77255  -0.76460
 Alpha  occ. eigenvalues --   -0.72693  -0.71225  -0.70987  -0.68972  -0.67668
 Alpha  occ. eigenvalues --   -0.67040  -0.65841  -0.64366  -0.63872  -0.63215
 Alpha  occ. eigenvalues --   -0.62699  -0.62435  -0.61230  -0.61066  -0.60780
 Alpha  occ. eigenvalues --   -0.60050  -0.59796  -0.59520  -0.58678  -0.58411
 Alpha  occ. eigenvalues --   -0.57956  -0.57435  -0.56883  -0.56549  -0.55974
 Alpha  occ. eigenvalues --   -0.55333  -0.54991  -0.54661  -0.54337  -0.54097
 Alpha  occ. eigenvalues --   -0.52862  -0.52808  -0.52438  -0.51865  -0.51399
 Alpha  occ. eigenvalues --   -0.51104  -0.50547  -0.49736  -0.49285  -0.48599
 Alpha  occ. eigenvalues --   -0.47590  -0.46418  -0.45261  -0.43687  -0.42749
 Alpha  occ. eigenvalues --   -0.41916  -0.41159  -0.40781  -0.39324  -0.38481
 Alpha  occ. eigenvalues --   -0.38405  -0.37795  -0.34458
 Alpha virt. eigenvalues --    0.17638   0.18796   0.19863   0.19937   0.20309
 Alpha virt. eigenvalues --    0.21651   0.21866   0.22889   0.23239   0.23696
 Alpha virt. eigenvalues --    0.24719   0.25658   0.27051   0.27735   0.27919

 Mulliken atomic charges:
              1
     1  C   -0.278675
     2  N   -0.783038
     3  C    0.824283
     4  O   -0.632072
     5  C    0.102419
     6  C   -0.472328
     7  C   -0.334577
     8  C   -0.308163
     9  C   -0.381706
    10  C   -0.180762
    11  C   -0.191492
    12  C   -0.325864
    13  C   -0.359868
    14  C   -0.332313
    15  C    0.095817
    16  C   -0.509790
    17  N   -0.787351
    18  C    0.767342
    19  C   -0.595546
    20  O   -0.613430
    21  C    0.815671
    22  O   -0.644667
    23  N   -0.800986
    24  C   -0.275856
    25  N   -0.843289
    26  C    0.744601
    27  C   -0.588690
    28  O   -0.592499
    29  H    0.186821
    30  H    0.194648
    31  H    0.163431
    32  H    0.391922
    33  H    0.197585
    34  H    0.145508
    35  H    0.211655
    36  H    0.161589
    37  H    0.181595
    38  H    0.163446
    39  H    0.183180
    40  H    0.208901
    41  H    0.171627
    42  H    0.181379
    43  H    0.172847
    44  H    0.179320
    45  H    0.161180
    46  H    0.155590
    47  H    0.215859
    48  H    0.177768
    49  H    0.199693
    50  H    0.182571
    51  H    0.151816
    52  H    0.226067
    53  H    0.389319
    54  H    0.210811
    55  H    0.208257
    56  H    0.175858
    57  H    0.397158
    58  H    0.181376
    59  H    0.193595
    60  H    0.179957
    61  H    0.383038
    62  H    0.218418
    63  H    0.177401
    64  H    0.201643
 Sum of Mulliken atomic charges =   0.00000

 Dipole moment (field-independent basis, Debye):
    X=              3.6524    Y=              7.1560    Z=             -0.2253  Tot=              8.0374
 Quadrupole moment (field-independent basis, Debye-Ang):
   XX=           -161.4632   YY=           -176.5461   ZZ=           -164.7518
   XY=              5.0203   XZ=             -9.3190   YZ=             -1.9232

 Normal termination of Gaussian 09 at Thu Dec  5 19:11:38 2019.
