 Gaussian 09, Revision A.02,
 Gaussian 09:  EM64L-G09RevA.02 11-Jun-2009

 ---------------------------------
 #SP HF/6-31G* Geom=(ModRedundant)
 ---------------------------------

 ------------
 paramfit run
 ------------
 Symbolic Z-matrix:
 Charge =  0 Multiplicity = 1

                         Standard orientation:
 ---------------------------------------------------------------------
 Center     Atomic      Atomic             Coordinates (Angstroms)
 Number     Number       Type             X           Y           Z
 ---------------------------------------------------------------------
      1          6    20001001        3.560902    1.480052    2.726728
      2          7    20001014        3.492716    1.070702    1.339274
      3          6    20001002        2.894084   -0.097424    1.008773
      4          8    20001024        2.214621   -0.715453    1.780859
      5          6    90000001        3.013572   -0.534736   -0.462235
      6          6    90000002        2.715526   -2.033282   -0.577863
      7          6    90000002        2.054730    0.305419   -1.349006
      8          6    90000002        0.540968    0.247064   -1.075587
      9          6    90000002       -0.018718    1.146666    0.044281
     10          6    20001004        0.281707    2.615770   -0.139445
     11          6    20001004       -0.515728    3.545240   -0.640386
     12          6    90000002       -1.924392    3.366967   -1.153840
     13          6    90000002       -2.453077    1.923953   -1.065714
     14          6    90000002       -2.504298    1.398837    0.375307
     15          6    90000002       -3.181763    0.026805    0.626740
     16          6    90000002       -3.044721   -0.291659    2.124489
     17          7    20001014       -4.592497    0.135735    0.281060
     18          6    20001002       -5.409425   -0.957627    0.265416
     19          6    20001001       -6.718347   -0.765066   -0.465645
     20          8    20001024       -5.117644   -1.996159    0.790257
     21          6    20001002       -2.533816   -1.020056   -0.307587
     22          8    20001024       -2.907884   -1.131940   -1.444022
     23          7    20001014       -1.480028   -1.715001    0.172583
     24          6    20001001       -0.858599   -2.746718   -0.632144
     25          7    20001014        4.356961   -0.234914   -0.978806
     26          6    20001002        5.503151   -0.754488   -0.453484
     27          6    20001001        6.731810   -0.615944   -1.328312
     28          8    20001024        5.542463   -1.272752    0.626329
     29          1    20001035        4.186711    0.816680    3.312603
     30          1    20001035        2.569398    1.483923    3.155248
     31          1    20001035        3.965675    2.483295    2.771630
     32          1    20001029        4.214212    1.386904    0.734505
     33          1    20001034        1.739695   -2.269497   -0.181770
     34          1    20001034        2.755912   -2.330086   -1.621661
     35          1    20001034        3.442789   -2.605684   -0.020753
     36          1    20001034        2.210100   -0.048920   -2.365630
     37          1    20001034        2.387593    1.338484   -1.332904
     38          1    20001034        0.050289    0.535151   -2.000712
     39          1    20001034        0.238403   -0.776519   -0.880379
     40          1    20001034        0.362882    0.824808    1.004569
     41          1    20001034       -1.090440    0.985273    0.078904
     42          1    20001033        1.261788    2.927417    0.183711
     43          1    20001033       -0.129664    4.551327   -0.690435
     44          1    20001034       -1.992277    3.690552   -2.185418
     45          1    20001034       -2.584836    4.021765   -0.586700
     46          1    20001034       -3.440249    1.905393   -1.519058
     47          1    20001034       -1.833699    1.278519   -1.674496
     48          1    20001034       -3.022499    2.119718    1.004062
     49          1    20001034       -1.491477    1.328170    0.754188
     50          1    20001034       -3.614643    0.437977    2.687872
     51          1    20001034       -2.011949   -0.218122    2.449073
     52          1    20001034       -3.427822   -1.273199    2.360184
     53          1    20001029       -4.810827    0.827220   -0.399301
     54          1    20001034       -7.427078   -1.502871   -0.121542
     55          1    20001034       -6.546937   -0.915321   -1.527327
     56          1    20001034       -7.123958    0.230438   -0.321309
     57          1    20001029       -1.360262   -1.772347    1.156289
     58          1    20001035        0.030815   -3.093489   -0.122619
     59          1    20001035       -0.578520   -2.340710   -1.593050
     60          1    20001035       -1.526305   -3.586376   -0.796151
     61          1    20001029        4.396680    0.050377   -1.932000
     62          1    20001034        7.612594   -0.683805   -0.706550
     63          1    20001034        6.742305    0.319581   -1.876247
     64          1    20001034        6.751702   -1.429871   -2.045897
 ---------------------------------------------------------------------

 SCF Done:  E(RHF) =  -1295.44911625     A.U. after   14 cycles

 The electronic state is 1-A.
 Alpha  occ. eigenvalues --  -20.53601 -20.52031 -20.51944 -20.51932 -15.59487
 Alpha  occ. eigenvalues --  -15.57897 -15.57611 -15.57414 -11.35901 -11.34126
 Alpha  occ. eigenvalues --  -11.33992 -11.33851 -11.28874 -11.28587 -11.25025
 Alpha  occ. eigenvalues --  -11.25015 -11.24292 -11.23293 -11.22884 -11.22530
 Alpha  occ. eigenvalues --  -11.22452 -11.22442 -11.21906 -11.21504 -11.21492
 Alpha  occ. eigenvalues --  -11.21411 -11.20908 -11.18786  -1.40550  -1.39501
 Alpha  occ. eigenvalues --   -1.38873  -1.38191  -1.25338  -1.23550  -1.22864
 Alpha  occ. eigenvalues --   -1.22147  -1.13844  -1.08808  -1.06906  -1.03989
 Alpha  occ. eigenvalues --   -1.01475  -1.00355  -0.98684  -0.97310  -0.95663
 Alpha  occ. eigenvalues --   -0.94958  -0.91409  -0.88065  -0.85278  -0.84344
 Alpha  occ. eigenvalues --   -0.82055  -0.79868  -0.78893  -0.77263  -0.76935
 Alpha  occ. eigenvalues --   -0.74244  -0.71281  -0.70954  -0.69185  -0.67855
 Alpha  occ. eigenvalues --   -0.66886  -0.65900  -0.65288  -0.64548  -0.63899
 Alpha  occ. eigenvalues --   -0.62854  -0.62599  -0.62227  -0.62061  -0.61453
 Alpha  occ. eigenvalues --   -0.60600  -0.59873  -0.59574  -0.58995  -0.58389
 Alpha  occ. eigenvalues --   -0.58065  -0.57810  -0.56945  -0.56330  -0.55864
 Alpha  occ. eigenvalues --   -0.55758  -0.55246  -0.55005  -0.54640  -0.54258
 Alpha  occ. eigenvalues --   -0.53196  -0.52801  -0.52559  -0.52225  -0.51280
 Alpha  occ. eigenvalues --   -0.50914  -0.50277  -0.49967  -0.48788  -0.48586
 Alpha  occ. eigenvalues --   -0.46991  -0.46289  -0.44664  -0.43011  -0.41965
 Alpha  occ. eigenvalues --   -0.41589  -0.41206  -0.39315  -0.38920  -0.38484
 Alpha  occ. eigenvalues --   -0.38435  -0.37163  -0.34551
 Alpha virt. eigenvalues --    0.18417   0.18863   0.19382   0.19832   0.20312
 Alpha virt. eigenvalues --    0.21323   0.21627   0.23228   0.23396   0.24426
 Alpha virt. eigenvalues --    0.25498   0.26297   0.26783   0.27571   0.28071

 Mulliken atomic charges:
              1
     1  C   -0.279153
     2  N   -0.782529
     3  C    0.828027
     4  O   -0.639263
     5  C    0.104056
     6  C   -0.476151
     7  C   -0.328050
     8  C   -0.298365
     9  C   -0.420451
    10  C   -0.184765
    11  C   -0.177580
    12  C   -0.321150
    13  C   -0.369053
    14  C   -0.434323
    15  C    0.131696
    16  C   -0.508131
    17  N   -0.787992
    18  C    0.766718
    19  C   -0.595777
    20  O   -0.613122
    21  C    0.788952
    22  O   -0.638184
    23  N   -0.803514
    24  C   -0.315358
    25  N   -0.843430
    26  C    0.744347
    27  C   -0.588648
    28  O   -0.593587
    29  H    0.186781
    30  H    0.194949
    31  H    0.163867
    32  H    0.392509
    33  H    0.190386
    34  H    0.146440
    35  H    0.211913
    36  H    0.156784
    37  H    0.177618
    38  H    0.164809
    39  H    0.204746
    40  H    0.206596
    41  H    0.162328
    42  H    0.183253
    43  H    0.173166
    44  H    0.176301
    45  H    0.165790
    46  H    0.169407
    47  H    0.212396
    48  H    0.189371
    49  H    0.278832
    50  H    0.186325
    51  H    0.158496
    52  H    0.227761
    53  H    0.388877
    54  H    0.211462
    55  H    0.207576
    56  H    0.176856
    57  H    0.408640
    58  H    0.188093
    59  H    0.193174
    60  H    0.198560
    61  H    0.383557
    62  H    0.218093
    63  H    0.177707
    64  H    0.201361
 Sum of Mulliken atomic charges =   0.00000

 Dipole moment (field-independent basis, Debye):
    X=              2.7706    Y=              5.2685    Z=             -3.6409  Tot=              6.9778
 Quadrupole moment (field-independent basis, Debye-Ang):
   XX=           -158.6203   YY=           -174.2724   ZZ=           -173.1941
   XY=             -4.4435   XZ=            -15.9889   YZ=              5.7832

 Normal termination of Gaussian 09 at Thu Dec  5 18:50:05 2019.
