 Gaussian 09, Revision A.02,
 Gaussian 09:  EM64L-G09RevA.02 11-Jun-2009

 ---------------------------------
 #SP HF/6-31G* Geom=(ModRedundant)
 ---------------------------------

 ------------
 paramfit run
 ------------
 Symbolic Z-matrix:
 Charge =  0 Multiplicity = 1

                         Standard orientation:
 ---------------------------------------------------------------------
 Center     Atomic      Atomic             Coordinates (Angstroms)
 Number     Number       Type             X           Y           Z
 ---------------------------------------------------------------------
      1          6    20001001        3.347902    0.344826    3.050996
      2          7    20001014        3.490883    0.487338    1.616949
      3          6    20001002        3.046056   -0.490699    0.793735
      4          8    20001024        2.333930   -1.378944    1.172738
      5          6    90000001        3.387434   -0.335632   -0.699182
      6          6    90000002        3.242537   -1.689489   -1.401976
      7          6    90000002        2.475137    0.741333   -1.346843
      8          6    90000002        0.950550    0.528585   -1.344090
      9          6    90000002        0.176440    0.917674   -0.068943
     10          6    20001004        0.363763    2.357385    0.348694
     11          6    20001004       -0.445339    3.377258    0.112112
     12          6    90000002       -1.756909    3.354461   -0.635561
     13          6    90000002       -2.401357    1.960588   -0.742193
     14          6    90000002       -2.734299    1.355523    0.628194
     15          6    90000002       -3.547039    0.035347    0.663299
     16          6    90000002       -3.688751   -0.384165    2.135502
     17          7    20001014       -4.866984    0.288119    0.101710
     18          6    20001002       -5.750582   -0.726562   -0.127928
     19          6    20001001       -6.899222   -0.376164   -1.045890
     20          8    20001024       -5.631360   -1.816567    0.358709
     21          6    20001002       -2.832807   -1.005600   -0.228344
     22          8    20001024       -3.017673   -1.015160   -1.415635
     23          7    20001014       -1.930984   -1.817969    0.363901
     24          6    20001001       -1.263472   -2.849398   -0.403421
     25          7    20001014        4.752305    0.186082   -0.861580
     26          6    20001002        5.865984   -0.450932   -0.399407
     27          6    20001001        7.176823    0.052590   -0.967108
     28          8    20001024        5.816580   -1.336668    0.406305
     29          1    20001035        3.952816   -0.467192    3.437848
     30          1    20001035        2.314332    0.150263    3.297168
     31          1    20001035        3.651756    1.271004    3.522399
     32          1    20001029        4.250841    1.034688    1.286560
     33          1    20001034        2.250155   -2.093382   -1.271661
     34          1    20001034        3.439684   -1.568591   -2.462991
     35          1    20001034        3.943085   -2.402753   -0.992814
     36          1    20001034        2.787686    0.802956   -2.386908
     37          1    20001034        2.708852    1.703339   -0.901644
     38          1    20001034        0.555400    1.126388   -2.160243
     39          1    20001034        0.719502   -0.503307   -1.587378
     40          1    20001034        0.462465    0.271349    0.750701
     41          1    20001034       -0.872248    0.715953   -0.257077
     42          1    20001033        1.263633    2.559708    0.906737
     43          1    20001033       -0.148358    4.341227    0.494641
     44          1    20001034       -1.625311    3.744729   -1.637479
     45          1    20001034       -2.451512    4.028943   -0.136366
     46          1    20001034       -3.296634    2.056053   -1.350255
     47          1    20001034       -1.739389    1.301538   -1.288343
     48          1    20001034       -3.294441    2.079523    1.216071
     49          1    20001034       -1.808084    1.173612    1.160535
     50          1    20001034       -4.288052    0.357034    2.651296
     51          1    20001034       -2.722794   -0.421144    2.628391
     52          1    20001034       -4.179773   -1.340884    2.232063
     53          1    20001029       -4.914305    1.036059   -0.551786
     54          1    20001034       -7.709927   -1.068606   -0.877540
     55          1    20001034       -6.563514   -0.476162   -2.073715
     56          1    20001034       -7.246233    0.640428   -0.895872
     57          1    20001029       -1.983237   -1.945150    1.346960
     58          1    20001035       -0.501586   -3.302965    0.216842
     59          1    20001035       -0.795514   -2.411923   -1.273051
     60          1    20001035       -1.956099   -3.615879   -0.735879
     61          1    20001029        4.884977    0.811352   -1.625113
     62          1    20001034        7.975478   -0.212608   -0.289765
     63          1    20001034        7.171325    1.125447   -1.123625
     64          1    20001034        7.359576   -0.428895   -1.922396
 ---------------------------------------------------------------------

 SCF Done:  E(RHF) =  -1295.58894506     A.U. after   14 cycles

 The electronic state is 1-A.
 Alpha  occ. eigenvalues --  -20.53676 -20.52021 -20.51775 -20.51406 -15.59612
 Alpha  occ. eigenvalues --  -15.57656 -15.57370 -15.57227 -11.35987 -11.34005
 Alpha  occ. eigenvalues --  -11.33985 -11.33361 -11.29031 -11.28211 -11.25078
 Alpha  occ. eigenvalues --  -11.24359 -11.24246 -11.23860 -11.22787 -11.22728
 Alpha  occ. eigenvalues --  -11.22409 -11.22325 -11.22290 -11.22065 -11.21837
 Alpha  occ. eigenvalues --  -11.21348 -11.20892 -11.20603  -1.40620  -1.39131
 Alpha  occ. eigenvalues --   -1.38862  -1.37864  -1.25452  -1.23258  -1.22197
 Alpha  occ. eigenvalues --   -1.22127  -1.11539  -1.09014  -1.06803  -1.03803
 Alpha  occ. eigenvalues --   -1.00980  -0.99493  -0.98514  -0.95705  -0.95604
 Alpha  occ. eigenvalues --   -0.94180  -0.91939  -0.87582  -0.85256  -0.82638
 Alpha  occ. eigenvalues --   -0.81252  -0.79193  -0.78740  -0.77298  -0.76469
 Alpha  occ. eigenvalues --   -0.72944  -0.71255  -0.70929  -0.69013  -0.67713
 Alpha  occ. eigenvalues --   -0.66959  -0.65867  -0.64475  -0.63929  -0.63298
 Alpha  occ. eigenvalues --   -0.62733  -0.62468  -0.61317  -0.61163  -0.60751
 Alpha  occ. eigenvalues --   -0.60306  -0.59756  -0.59378  -0.58651  -0.58380
 Alpha  occ. eigenvalues --   -0.57970  -0.57445  -0.56903  -0.56503  -0.55918
 Alpha  occ. eigenvalues --   -0.55300  -0.55172  -0.54699  -0.54400  -0.54121
 Alpha  occ. eigenvalues --   -0.52890  -0.52806  -0.52524  -0.52032  -0.51432
 Alpha  occ. eigenvalues --   -0.51135  -0.50251  -0.49690  -0.48931  -0.48567
 Alpha  occ. eigenvalues --   -0.47382  -0.46574  -0.45290  -0.43996  -0.42820
 Alpha  occ. eigenvalues --   -0.41972  -0.41221  -0.40764  -0.39362  -0.38506
 Alpha  occ. eigenvalues --   -0.38447  -0.37791  -0.34531
 Alpha virt. eigenvalues --    0.17913   0.18774   0.19743   0.19950   0.20293
 Alpha virt. eigenvalues --    0.21673   0.21772   0.22783   0.23307   0.23660
 Alpha virt. eigenvalues --    0.24745   0.25703   0.27071   0.27743   0.27847

 Mulliken atomic charges:
              1
     1  C   -0.278815
     2  N   -0.782876
     3  C    0.825380
     4  O   -0.633976
     5  C    0.102473
     6  C   -0.472881
     7  C   -0.334553
     8  C   -0.308406
     9  C   -0.383979
    10  C   -0.183847
    11  C   -0.185609
    12  C   -0.321473
    13  C   -0.371034
    14  C   -0.358823
    15  C    0.110450
    16  C   -0.510188
    17  N   -0.787895
    18  C    0.767321
    19  C   -0.595565
    20  O   -0.613222
    21  C    0.801682
    22  O   -0.642386
    23  N   -0.796317
    24  C   -0.279832
    25  N   -0.843323
    26  C    0.744598
    27  C   -0.588707
    28  O   -0.592695
    29  H    0.186862
    30  H    0.194639
    31  H    0.163778
    32  H    0.392144
    33  H    0.195802
    34  H    0.146282
    35  H    0.211639
    36  H    0.161601
    37  H    0.181640
    38  H    0.164139
    39  H    0.185740
    40  H    0.206779
    41  H    0.167170
    42  H    0.181693
    43  H    0.172478
    44  H    0.178522
    45  H    0.161772
    46  H    0.158308
    47  H    0.221725
    48  H    0.182568
    49  H    0.215009
    50  H    0.182757
    51  H    0.153700
    52  H    0.226244
    53  H    0.389171
    54  H    0.210896
    55  H    0.208056
    56  H    0.175975
    57  H    0.399527
    58  H    0.187333
    59  H    0.188910
    60  H    0.180707
    61  H    0.383259
    62  H    0.218437
    63  H    0.177523
    64  H    0.201711
 Sum of Mulliken atomic charges =   0.00000

 Dipole moment (field-independent basis, Debye):
    X=              3.5383    Y=              6.7559    Z=             -1.6071  Tot=              7.7939
 Quadrupole moment (field-independent basis, Debye-Ang):
   XX=           -159.3796   YY=           -176.8520   ZZ=           -166.5700
   XY=              1.6953   XZ=            -12.0033   YZ=              1.4592

 Normal termination of Gaussian 09 at Thu Dec  5 19:05:03 2019.
