 Gaussian 09, Revision A.02,
 Gaussian 09:  EM64L-G09RevA.02 11-Jun-2009

 ---------------------------------
 #SP HF/6-31G* Geom=(ModRedundant)
 ---------------------------------

 ------------
 paramfit run
 ------------
 Symbolic Z-matrix:
 Charge =  0 Multiplicity = 1

                         Standard orientation:
 ---------------------------------------------------------------------
 Center     Atomic      Atomic             Coordinates (Angstroms)
 Number     Number       Type             X           Y           Z
 ---------------------------------------------------------------------
      1          6    20001001       -3.743823    2.865300    0.653707
      2          7    20001014       -4.099613    1.461983    0.616811
      3          6    20001002       -4.289455    0.844796   -0.572789
      4          8    20001024       -3.962006    1.339264   -1.615873
      5          6    90000001       -4.826861   -0.596554   -0.517198
      6          6    90000002       -5.416687   -0.977134   -1.879221
      7          6    90000002       -3.695298   -1.572802   -0.095171
      8          6    90000002       -2.440077   -1.688059   -0.978784
      9          6    90000002       -1.333673   -0.631080   -0.790886
     10          6    20001004       -0.802496   -0.541372    0.620525
     11          6    20001004        0.296948   -1.095752    1.104924
     12          6    90000002        1.293100   -1.956988    0.366204
     13          6    90000002        2.563158   -1.212753   -0.083943
     14          6    90000002        3.359695   -0.634728    1.093483
     15          6    90000002        4.750089   -0.015054    0.797759
     16          6    90000002        5.302363    0.540139    2.120712
     17          7    20001014        5.631404   -1.065801    0.307100
     18          6    20001002        6.878826   -0.785074   -0.170590
     19          6    20001001        7.514709   -1.890855   -0.981581
     20          8    20001024        7.434998    0.257997    0.033905
     21          6    20001002        4.589831    1.042543   -0.317827
     22          8    20001024        4.580140    0.708963   -1.472192
     23          7    20001014        4.361294    2.318182    0.062300
     24          6    20001001        4.252385    3.367089   -0.930743
     25          7    20001014       -5.842157   -0.724892    0.538327
     26          6    20001002       -7.001937   -0.008008    0.564018
     27          6    20001001       -8.059318   -0.529747    1.514729
     28          8    20001024       -7.171762    0.971002   -0.105937
     29          1    20001035       -4.544363    3.494205    0.281467
     30          1    20001035       -2.864817    3.034961    0.049316
     31          1    20001035       -3.522845    3.139062    1.677707
     32          1    20001029       -4.604317    1.098943    1.391253
     33          1    20001034       -4.686439   -0.866289   -2.666231
     34          1    20001034       -5.753960   -2.008976   -1.851174
     35          1    20001034       -6.255113   -0.339114   -2.117753
     36          1    20001034       -4.155340   -2.557960   -0.062836
     37          1    20001034       -3.402513   -1.340387    0.923918
     38          1    20001034       -2.002532   -2.659063   -0.765890
     39          1    20001034       -2.724056   -1.708813   -2.025827
     40          1    20001034       -1.694857    0.342593   -1.095633
     41          1    20001034       -0.532265   -0.881141   -1.477216
     42          1    20001033       -1.397491    0.049704    1.297815
     43          1    20001033        0.522066   -0.917415    2.144770
     44          1    20001034        0.831687   -2.399763   -0.508161
     45          1    20001034        1.578445   -2.786962    1.011430
     46          1    20001034        3.169558   -1.909791   -0.655599
     47          1    20001034        2.289972   -0.422805   -0.771097
     48          1    20001034        3.519250   -1.412040    1.837702
     49          1    20001034        2.763330    0.134021    1.570689
     50          1    20001034        5.474983   -0.287300    2.799039
     51          1    20001034        4.589429    1.206189    2.595563
     52          1    20001034        6.238648    1.057980    1.975969
     53          1    20001029        5.175766   -1.826544   -0.142764
     54          1    20001034        8.584724   -1.749515   -0.993821
     55          1    20001034        7.143660   -1.829949   -2.000276
     56          1    20001034        7.277657   -2.873535   -0.588481
     57          1    20001029        4.612603    2.589137    0.983570
     58          1    20001035        3.951156    4.281179   -0.436148
     59          1    20001035        3.504823    3.099886   -1.663123
     60          1    20001035        5.193030    3.533220   -1.445856
     61          1    20001029       -5.847968   -1.593489    1.025207
     62          1    20001034       -8.739584    0.274127    1.755558
     63          1    20001034       -7.630142   -0.930855    2.426031
     64          1    20001034       -8.618528   -1.321047    1.025926
 ---------------------------------------------------------------------

 SCF Done:  E(RHF) =  -1295.62206803     A.U. after   14 cycles

 The electronic state is 1-A.
 Alpha  occ. eigenvalues --  -20.53652 -20.52028 -20.51853 -20.51559 -15.59611
 Alpha  occ. eigenvalues --  -15.57864 -15.57544 -15.57500 -11.35971 -11.34235
 Alpha  occ. eigenvalues --  -11.33866 -11.33646 -11.29028 -11.28540 -11.24938
 Alpha  occ. eigenvalues --  -11.24914 -11.24362 -11.24002 -11.23368 -11.22692
 Alpha  occ. eigenvalues --  -11.22544 -11.22500 -11.22336 -11.22216 -11.22015
 Alpha  occ. eigenvalues --  -11.21782 -11.21589 -11.20851  -1.40589  -1.39341
 Alpha  occ. eigenvalues --   -1.38711  -1.38063  -1.25435  -1.23526  -1.22576
 Alpha  occ. eigenvalues --   -1.22090  -1.10758  -1.09249  -1.07176  -1.04212
 Alpha  occ. eigenvalues --   -1.01222  -0.99317  -0.98721  -0.95530  -0.95116
 Alpha  occ. eigenvalues --   -0.94556  -0.92179  -0.87264  -0.85686  -0.82832
 Alpha  occ. eigenvalues --   -0.81333  -0.79466  -0.78758  -0.77189  -0.76844
 Alpha  occ. eigenvalues --   -0.71880  -0.71281  -0.71090  -0.68940  -0.67968
 Alpha  occ. eigenvalues --   -0.66726  -0.65853  -0.64512  -0.63941  -0.63683
 Alpha  occ. eigenvalues --   -0.62593  -0.62342  -0.61751  -0.61396  -0.61137
 Alpha  occ. eigenvalues --   -0.60912  -0.59898  -0.59328  -0.58704  -0.58416
 Alpha  occ. eigenvalues --   -0.58252  -0.57805  -0.56566  -0.56390  -0.56213
 Alpha  occ. eigenvalues --   -0.55483  -0.54830  -0.54727  -0.54565  -0.53955
 Alpha  occ. eigenvalues --   -0.53078  -0.52822  -0.52453  -0.52135  -0.51536
 Alpha  occ. eigenvalues --   -0.51031  -0.50302  -0.49758  -0.49235  -0.48526
 Alpha  occ. eigenvalues --   -0.48341  -0.46920  -0.46390  -0.44535  -0.42871
 Alpha  occ. eigenvalues --   -0.41944  -0.41476  -0.41042  -0.39291  -0.38809
 Alpha  occ. eigenvalues --   -0.38327  -0.38249  -0.34502
 Alpha virt. eigenvalues --    0.17305   0.18797   0.19678   0.19989   0.20236
 Alpha virt. eigenvalues --    0.21622   0.21969   0.23182   0.23236   0.23924
 Alpha virt. eigenvalues --    0.25297   0.25636   0.26555   0.27173   0.27622

 Mulliken atomic charges:
              1
     1  C   -0.279640
     2  N   -0.783400
     3  C    0.821874
     4  O   -0.628105
     5  C    0.102312
     6  C   -0.472799
     7  C   -0.334295
     8  C   -0.312017
     9  C   -0.373891
    10  C   -0.178441
    11  C   -0.178269
    12  C   -0.353398
    13  C   -0.310354
    14  C   -0.328705
    15  C    0.090908
    16  C   -0.509594
    17  N   -0.787592
    18  C    0.767307
    19  C   -0.595691
    20  O   -0.613864
    21  C    0.820640
    22  O   -0.639396
    23  N   -0.805911
    24  C   -0.275624
    25  N   -0.843078
    26  C    0.744559
    27  C   -0.588676
    28  O   -0.591770
    29  H    0.187026
    30  H    0.198232
    31  H    0.162163
    32  H    0.391335
    33  H    0.199002
    34  H    0.144112
    35  H    0.212511
    36  H    0.161389
    37  H    0.182125
    38  H    0.164474
    39  H    0.179963
    40  H    0.213507
    41  H    0.175416
    42  H    0.180429
    43  H    0.169686
    44  H    0.176820
    45  H    0.160163
    46  H    0.150807
    47  H    0.199569
    48  H    0.172881
    49  H    0.185452
    50  H    0.183415
    51  H    0.148425
    52  H    0.226590
    53  H    0.389752
    54  H    0.211142
    55  H    0.209492
    56  H    0.176216
    57  H    0.395255
    58  H    0.164886
    59  H    0.199967
    60  H    0.184897
    61  H    0.382624
    62  H    0.218613
    63  H    0.177185
    64  H    0.201386
 Sum of Mulliken atomic charges =   0.00000

 Dipole moment (field-independent basis, Debye):
    X=             -2.8543    Y=             -4.6057    Z=              6.3450  Tot=              8.3437
 Quadrupole moment (field-independent basis, Debye-Ang):
   XX=           -192.9021   YY=           -156.3384   ZZ=           -173.2554
   XY=             14.2127   XZ=            -17.0810   YZ=              9.9877

 Normal termination of Gaussian 09 at Thu Dec  5 18:36:41 2019.
