 Gaussian 09, Revision A.02,
 Gaussian 09:  EM64L-G09RevA.02 11-Jun-2009

 ---------------------------------
 #SP HF/6-31G* Geom=(ModRedundant)
 ---------------------------------

 ------------
 paramfit run
 ------------
 Symbolic Z-matrix:
 Charge =  0 Multiplicity = 1

                         Standard orientation:
 ---------------------------------------------------------------------
 Center     Atomic      Atomic             Coordinates (Angstroms)
 Number     Number       Type             X           Y           Z
 ---------------------------------------------------------------------
      1          6    20001001       -3.878703    2.936369    0.340858
      2          7    20001014       -4.193871    1.527393    0.453556
      3          6    20001002       -4.433917    0.798126   -0.661189
      4          8    20001024       -4.182542    1.201632   -1.762888
      5          6    90000001       -4.923803   -0.644578   -0.442093
      6          6    90000002       -5.580073   -1.164096   -1.725547
      7          6    90000002       -3.740928   -1.549524   -0.002228
      8          6    90000002       -2.536252   -1.715455   -0.946082
      9          6    90000002       -1.452939   -0.618860   -0.922610
     10          6    20001004       -0.843618   -0.385731    0.439981
     11          6    20001004        0.298202   -0.865756    0.905365
     12          6    90000002        1.275105   -1.767136    0.189175
     13          6    90000002        2.603270   -1.087697   -0.190173
     14          6    90000002        3.379711   -0.580774    1.032563
     15          6    90000002        4.814247   -0.035760    0.809606
     16          6    90000002        5.339490    0.459346    2.166971
     17          7    20001014        5.655250   -1.124864    0.332012
     18          6    20001002        6.935904   -0.906204   -0.086521
     19          6    20001001        7.542776   -2.029541   -0.895610
     20          8    20001024        7.540650    0.098835    0.165116
     21          6    20001002        4.761981    1.052178   -0.286928
     22          8    20001024        4.783189    0.743702   -1.448101
     23          7    20001014        4.589542    2.330659    0.112738
     24          6    20001001        4.582735    3.404441   -0.859448
     25          7    20001014       -5.871792   -0.699312    0.680293
     26          6    20001002       -7.049060   -0.011721    0.710793
     27          6    20001001       -8.033355   -0.468791    1.767377
     28          8    20001024       -7.286732    0.896518   -0.034025
     29          1    20001035       -4.717975    3.508286   -0.037934
     30          1    20001035       -3.041753    3.070724   -0.328609
     31          1    20001035       -3.606926    3.309203    1.320391
     32          1    20001029       -4.641657    1.225470    1.286992
     33          1    20001034       -4.900407   -1.108854   -2.562168
     34          1    20001034       -5.884112   -2.196835   -1.583252
     35          1    20001034       -6.449658   -0.571638   -1.969969
     36          1    20001034       -4.168621   -2.538400    0.147513
     37          1    20001034       -3.396545   -1.216545    0.971838
     38          1    20001034       -2.058215   -2.651546   -0.672529
     39          1    20001034       -2.879808   -1.840123   -1.967747
     40          1    20001034       -1.860193    0.313240   -1.292334
     41          1    20001034       -0.685615   -0.911788   -1.630594
     42          1    20001033       -1.415702    0.250854    1.095414
     43          1    20001033        0.577887   -0.586337    1.909089
     44          1    20001034        0.827526   -2.164535   -0.713716
     45          1    20001034        1.485205   -2.625288    0.826379
     46          1    20001034        3.193465   -1.806323   -0.751974
     47          1    20001034        2.404847   -0.269324   -0.869678
     48          1    20001034        3.463045   -1.381210    1.764610
     49          1    20001034        2.807630    0.210812    1.502099
     50          1    20001034        5.435868   -0.390505    2.832589
     51          1    20001034        4.645449    1.155151    2.626908
     52          1    20001034        6.308825    0.925597    2.073493
     53          1    20001029        5.177250   -1.848770   -0.153980
     54          1    20001034        8.618590   -1.949498   -0.859860
     55          1    20001034        7.219924   -1.926379   -1.927234
     56          1    20001034        7.234038   -3.004969   -0.535602
     57          1    20001029        4.815846    2.567618    1.049726
     58          1    20001035        4.312489    4.323834   -0.356850
     59          1    20001035        3.853512    3.195734   -1.628409
     60          1    20001035        5.552538    3.527063   -1.330830
     61          1    20001029       -5.823317   -1.518916    1.243719
     62          1    20001034       -8.722244    0.337063    1.974751
     63          1    20001034       -7.540168   -0.773073    2.683744
     64          1    20001034       -8.596071   -1.315439    1.387457
 ---------------------------------------------------------------------

 SCF Done:  E(RHF) =  -1295.62198220     A.U. after   14 cycles

 The electronic state is 1-A.
 Alpha  occ. eigenvalues --  -20.53655 -20.52067 -20.51852 -20.51612 -15.59614
 Alpha  occ. eigenvalues --  -15.57926 -15.57545 -15.57540 -11.35975 -11.34275
 Alpha  occ. eigenvalues --  -11.33865 -11.33701 -11.29031 -11.28597 -11.25006
 Alpha  occ. eigenvalues --  -11.24903 -11.24366 -11.24007 -11.23439 -11.22693
 Alpha  occ. eigenvalues --  -11.22555 -11.22530 -11.22358 -11.22240 -11.22026
 Alpha  occ. eigenvalues --  -11.21836 -11.21586 -11.20858  -1.40592  -1.39387
 Alpha  occ. eigenvalues --   -1.38710  -1.38110  -1.25438  -1.23572  -1.22637
 Alpha  occ. eigenvalues --   -1.22086  -1.10764  -1.09280  -1.07206  -1.04243
 Alpha  occ. eigenvalues --   -1.01251  -0.99330  -0.98756  -0.95524  -0.95142
 Alpha  occ. eigenvalues --   -0.94594  -0.92206  -0.87251  -0.85730  -0.82839
 Alpha  occ. eigenvalues --   -0.81361  -0.79522  -0.78783  -0.77187  -0.76898
 Alpha  occ. eigenvalues --   -0.71938  -0.71320  -0.71119  -0.68964  -0.68006
 Alpha  occ. eigenvalues --   -0.66634  -0.65857  -0.64568  -0.63977  -0.63757
 Alpha  occ. eigenvalues --   -0.62587  -0.62308  -0.61807  -0.61444  -0.61193
 Alpha  occ. eigenvalues --   -0.60932  -0.59902  -0.59359  -0.58731  -0.58457
 Alpha  occ. eigenvalues --   -0.58269  -0.57842  -0.56584  -0.56411  -0.56204
 Alpha  occ. eigenvalues --   -0.55503  -0.54900  -0.54770  -0.54557  -0.53958
 Alpha  occ. eigenvalues --   -0.53104  -0.52825  -0.52518  -0.52159  -0.51554
 Alpha  occ. eigenvalues --   -0.51034  -0.50304  -0.49779  -0.49354  -0.48587
 Alpha  occ. eigenvalues --   -0.48356  -0.46938  -0.46363  -0.44514  -0.42873
 Alpha  occ. eigenvalues --   -0.41947  -0.41525  -0.41083  -0.39292  -0.38859
 Alpha  occ. eigenvalues --   -0.38324  -0.38304  -0.34521
 Alpha virt. eigenvalues --    0.17409   0.18794   0.19636   0.19985   0.20224
 Alpha virt. eigenvalues --    0.21564   0.22007   0.23095   0.23319   0.23990
 Alpha virt. eigenvalues --    0.25294   0.25703   0.26530   0.26939   0.27714

 Mulliken atomic charges:
              1
     1  C   -0.279696
     2  N   -0.783405
     3  C    0.821940
     4  O   -0.628154
     5  C    0.102362
     6  C   -0.472773
     7  C   -0.334305
     8  C   -0.311596
     9  C   -0.373544
    10  C   -0.180823
    11  C   -0.173699
    12  C   -0.353480
    13  C   -0.311714
    14  C   -0.330156
    15  C    0.091531
    16  C   -0.509572
    17  N   -0.787724
    18  C    0.767308
    19  C   -0.595696
    20  O   -0.613877
    21  C    0.820529
    22  O   -0.639117
    23  N   -0.806091
    24  C   -0.275573
    25  N   -0.843072
    26  C    0.744559
    27  C   -0.588674
    28  O   -0.591744
    29  H    0.186992
    30  H    0.198463
    31  H    0.162182
    32  H    0.391288
    33  H    0.198903
    34  H    0.144074
    35  H    0.212523
    36  H    0.161313
    37  H    0.182069
    38  H    0.164367
    39  H    0.179644
    40  H    0.213323
    41  H    0.174652
    42  H    0.180369
    43  H    0.169651
    44  H    0.177056
    45  H    0.160200
    46  H    0.151840
    47  H    0.199743
    48  H    0.173655
    49  H    0.183926
    50  H    0.183572
    51  H    0.148155
    52  H    0.226732
    53  H    0.389817
    54  H    0.211214
    55  H    0.209576
    56  H    0.176306
    57  H    0.395284
    58  H    0.164815
    59  H    0.199684
    60  H    0.185106
    61  H    0.382594
    62  H    0.218632
    63  H    0.177168
    64  H    0.201367
 Sum of Mulliken atomic charges =   0.00000

 Dipole moment (field-independent basis, Debye):
    X=             -2.5888    Y=             -4.1233    Z=              6.5977  Tot=              8.1996
 Quadrupole moment (field-independent basis, Debye-Ang):
   XX=           -199.0851   YY=           -154.6070   ZZ=           -173.6415
   XY=             13.6887   XZ=            -20.2784   YZ=              9.4621

 Normal termination of Gaussian 09 at Thu Dec  5 18:41:59 2019.
