 Gaussian 09, Revision A.02,
 Gaussian 09:  EM64L-G09RevA.02 11-Jun-2009

 ---------------------------------
 #SP HF/6-31G* Geom=(ModRedundant)
 ---------------------------------

 ------------
 paramfit run
 ------------
 Symbolic Z-matrix:
 Charge =  0 Multiplicity = 1

                         Standard orientation:
 ---------------------------------------------------------------------
 Center     Atomic      Atomic             Coordinates (Angstroms)
 Number     Number       Type             X           Y           Z
 ---------------------------------------------------------------------
      1          6    20001001       -4.594130    2.913081   -0.856210
      2          7    20001014       -4.557966    1.623550   -0.198148
      3          6    20001002       -4.892631    0.505895   -0.884410
      4          8    20001024       -5.006362    0.491785   -2.078819
      5          6    90000001       -4.988966   -0.795037   -0.067292
      6          6    90000002       -5.803555   -1.831992   -0.847683
      7          6    90000002       -3.567148   -1.323162    0.266054
      8          6    90000002       -2.616929   -1.689908   -0.888163
      9          6    90000002       -1.825594   -0.546527   -1.553825
     10          6    20001004       -0.974013    0.251468   -0.594507
     11          6    20001004        0.322359    0.118718   -0.365259
     12          6    90000002        1.271985   -0.865019   -1.005746
     13          6    90000002        2.756319   -0.469540   -0.906176
     14          6    90000002        3.244034   -0.359730    0.544682
     15          6    90000002        4.759943   -0.142905    0.788920
     16          6    90000002        4.971418   -0.005894    2.305480
     17          7    20001014        5.480058   -1.311760    0.302357
     18          6    20001002        6.843874   -1.340580    0.255111
     19          6    20001001        7.428900   -2.434664   -0.608331
     20          8    20001024        7.532805   -0.560161    0.851318
     21          6    20001002        5.219355    1.084455   -0.030382
     22          8    20001024        5.503410    0.965831   -1.191919
     23          7    20001014        5.186372    2.288331    0.580826
     24          6    20001001        5.651465    3.471823   -0.112886
     25          7    20001014       -5.605473   -0.533973    1.241599
     26          6    20001002       -6.862051   -0.028063    1.398884
     27          6    20001001       -7.440872   -0.165806    2.791764
     28          8    20001024       -7.463239    0.498845    0.506091
     29          1    20001035       -5.603585    3.198220   -1.129427
     30          1    20001035       -3.991710    2.882580   -1.752248
     31          1    20001035       -4.184022    3.655965   -0.183686
     32          1    20001029       -4.716400    1.607179    0.782115
     33          1    20001034       -5.372673   -2.016463   -1.819920
     34          1    20001034       -5.831866   -2.763265   -0.289860
     35          1    20001034       -6.814029   -1.480975   -0.998200
     36          1    20001034       -3.720242   -2.225766    0.853495
     37          1    20001034       -3.080957   -0.610483    0.924832
     38          1    20001034       -1.894975   -2.391582   -0.480668
     39          1    20001034       -3.159171   -2.228921   -1.658107
     40          1    20001034       -2.502712    0.123579   -2.067472
     41          1    20001034       -1.205043   -0.992397   -2.323208
     42          1    20001033       -1.497387    1.016268   -0.043804
     43          1    20001033        0.766115    0.785760    0.357165
     44          1    20001034        1.025999   -0.998090   -2.052287
     45          1    20001034        1.131882   -1.837524   -0.535427
     46          1    20001034        3.333126   -1.210473   -1.452697
     47          1    20001034        2.911679    0.468692   -1.422329
     48          1    20001034        2.969036   -1.261682    1.087264
     49          1    20001034        2.723602    0.461317    1.023619
     50          1    20001034        4.717846   -0.947895    2.777621
     51          1    20001034        4.320731    0.753797    2.726023
     52          1    20001034        5.998298    0.225576    2.545645
     53          1    20001029        5.028396   -1.816006   -0.425963
     54          1    20001034        8.447657   -2.618986   -0.303015
     55          1    20001034        7.430235   -2.097293   -1.640467
     56          1    20001034        6.854785   -3.352919   -0.548471
     57          1    20001029        5.184256    2.314789    1.573099
     58          1    20001035        5.430274    4.338536    0.496050
     59          1    20001035        5.138438    3.565511   -1.058747
     60          1    20001035        6.719002    3.433036   -0.304232
     61          1    20001029       -5.246019   -1.069745    2.000077
     62          1    20001034       -8.218867    0.572406    2.921144
     63          1    20001034       -6.688661   -0.043191    3.562929
     64          1    20001034       -7.879444   -1.152676    2.899203
 ---------------------------------------------------------------------

 SCF Done:  E(RHF) =  -1295.61950230     A.U. after   14 cycles

 The electronic state is 1-A.
 Alpha  occ. eigenvalues --  -20.53683 -20.52235 -20.51868 -20.51853 -15.59646
 Alpha  occ. eigenvalues --  -15.58190 -15.57732 -15.57544 -11.36002 -11.34440
 Alpha  occ. eigenvalues --  -11.33939 -11.33883 -11.29063 -11.28819 -11.25274
 Alpha  occ. eigenvalues --  -11.24883 -11.24394 -11.24046 -11.23684 -11.22756
 Alpha  occ. eigenvalues --  -11.22665 -11.22604 -11.22540 -11.22198 -11.22042
 Alpha  occ. eigenvalues --  -11.21857 -11.21599 -11.20900  -1.40619  -1.39590
 Alpha  occ. eigenvalues --   -1.38727  -1.38318  -1.25467  -1.23765  -1.22896
 Alpha  occ. eigenvalues --   -1.22092  -1.10793  -1.09416  -1.07280  -1.04379
 Alpha  occ. eigenvalues --   -1.01339  -0.99392  -0.98894  -0.95523  -0.95304
 Alpha  occ. eigenvalues --   -0.94744  -0.92283  -0.87243  -0.85883  -0.82837
 Alpha  occ. eigenvalues --   -0.81437  -0.79750  -0.78888  -0.77197  -0.77130
 Alpha  occ. eigenvalues --   -0.72283  -0.71563  -0.71199  -0.69046  -0.68094
 Alpha  occ. eigenvalues --   -0.65967  -0.65758  -0.64999  -0.64163  -0.64035
 Alpha  occ. eigenvalues --   -0.62610  -0.62240  -0.61792  -0.61641  -0.61440
 Alpha  occ. eigenvalues --   -0.60934  -0.59956  -0.59676  -0.58860  -0.58503
 Alpha  occ. eigenvalues --   -0.58339  -0.57872  -0.56854  -0.56489  -0.56261
 Alpha  occ. eigenvalues --   -0.55510  -0.55332  -0.54986  -0.54582  -0.54345
 Alpha  occ. eigenvalues --   -0.53462  -0.52833  -0.52735  -0.52033  -0.51544
 Alpha  occ. eigenvalues --   -0.51063  -0.50226  -0.50102  -0.49473  -0.48682
 Alpha  occ. eigenvalues --   -0.48445  -0.46951  -0.46376  -0.44542  -0.42897
 Alpha  occ. eigenvalues --   -0.41975  -0.41725  -0.41258  -0.39315  -0.39081
 Alpha  occ. eigenvalues --   -0.38531  -0.38328  -0.34378
 Alpha virt. eigenvalues --    0.17436   0.18763   0.19433   0.19945   0.20171
 Alpha virt. eigenvalues --    0.21251   0.21597   0.22668   0.23292   0.23943
 Alpha virt. eigenvalues --    0.25145   0.25673   0.26175   0.26500   0.27705

 Mulliken atomic charges:
              1
     1  C   -0.279773
     2  N   -0.783244
     3  C    0.822126
     4  O   -0.628433
     5  C    0.102357
     6  C   -0.472711
     7  C   -0.334056
     8  C   -0.311105
     9  C   -0.371640
    10  C   -0.185734
    11  C   -0.176269
    12  C   -0.342317
    13  C   -0.328048
    14  C   -0.329732
    15  C    0.092974
    16  C   -0.509406
    17  N   -0.788139
    18  C    0.767194
    19  C   -0.595723
    20  O   -0.613865
    21  C    0.820138
    22  O   -0.638574
    23  N   -0.806974
    24  C   -0.275617
    25  N   -0.843047
    26  C    0.744572
    27  C   -0.588670
    28  O   -0.591646
    29  H    0.186803
    30  H    0.198765
    31  H    0.162616
    32  H    0.391187
    33  H    0.198632
    34  H    0.143946
    35  H    0.212606
    36  H    0.160885
    37  H    0.182081
    38  H    0.163647
    39  H    0.179349
    40  H    0.212067
    41  H    0.171683
    42  H    0.180521
    43  H    0.170354
    44  H    0.182487
    45  H    0.163890
    46  H    0.156943
    47  H    0.198260
    48  H    0.177180
    49  H    0.179803
    50  H    0.184185
    51  H    0.147635
    52  H    0.227066
    53  H    0.390002
    54  H    0.211534
    55  H    0.209760
    56  H    0.176697
    57  H    0.395531
    58  H    0.164848
    59  H    0.198768
    60  H    0.186008
    61  H    0.382460
    62  H    0.218748
    63  H    0.177101
    64  H    0.201318
 Sum of Mulliken atomic charges =   0.00000

 Dipole moment (field-independent basis, Debye):
    X=             -1.1179    Y=             -1.8916    Z=              6.5105  Tot=              6.8713
 Quadrupole moment (field-independent basis, Debye-Ang):
   XX=           -227.5260   YY=           -151.6556   ZZ=           -171.2353
   XY=              5.6907   XZ=            -29.7991   YZ=              7.5711

 Normal termination of Gaussian 09 at Thu Dec  5 19:07:59 2019.
