 Gaussian 09, Revision A.02,
 Gaussian 09:  EM64L-G09RevA.02 11-Jun-2009

 ---------------------------------
 #SP HF/6-31G* Geom=(ModRedundant)
 ---------------------------------

 ------------
 paramfit run
 ------------
 Symbolic Z-matrix:
 Charge =  0 Multiplicity = 1

                         Standard orientation:
 ---------------------------------------------------------------------
 Center     Atomic      Atomic             Coordinates (Angstroms)
 Number     Number       Type             X           Y           Z
 ---------------------------------------------------------------------
      1          6    20001001        5.284049   -1.931453    1.886652
      2          7    20001014        4.599378   -0.857894    1.196767
      3          6    20001002        4.588429   -0.823823   -0.156314
      4          8    20001024        4.927350   -1.758436   -0.828161
      5          6    90000001        3.985090    0.435648   -0.803694
      6          6    90000002        4.454176    0.539576   -2.258685
      7          6    90000002        2.435641    0.395785   -0.707660
      8          6    90000002        1.674802   -0.758973   -1.383895
      9          6    90000002        1.563540   -2.089932   -0.613955
     10          6    20001004        0.928942   -1.959452    0.750793
     11          6    20001004       -0.328371   -2.204795    1.082047
     12          6    90000002       -1.441294   -2.675358    0.176661
     13          6    90000002       -2.734724   -1.847072    0.279363
     14          6    90000002       -2.528098   -0.375886   -0.105126
     15          6    90000002       -3.781367    0.530422   -0.217233
     16          6    90000002       -3.298823    1.951821   -0.549240
     17          7    20001014       -4.616136    0.035449   -1.303370
     18          6    20001002       -5.857421    0.551120   -1.540759
     19          6    20001001       -6.740680   -0.295932   -2.427979
     20          8    20001024       -6.226466    1.597038   -1.083591
     21          6    20001002       -4.585040    0.423104    1.098564
     22          8    20001024       -5.353601   -0.485151    1.266835
     23          7    20001014       -4.310720    1.320183    2.070150
     24          6    20001001       -5.062591    1.307730    3.308187
     25          7    20001014        4.374054    1.636266   -0.049604
     26          6    20001002        5.667215    2.027065    0.136633
     27          6    20001001        5.845099    3.451245    0.620562
     28          8    20001024        6.597437    1.296391   -0.055569
     29          1    20001035        6.355444   -1.895267    1.726175
     30          1    20001035        4.916344   -2.884263    1.534985
     31          1    20001035        5.079764   -1.846883    2.946591
     32          1    20001029        4.534746    0.016189    1.663765
     33          1    20001034        4.193206   -0.345999   -2.817778
     34          1    20001034        3.991503    1.403469   -2.726510
     35          1    20001034        5.527999    0.649330   -2.300935
     36          1    20001034        2.089863    1.319136   -1.167095
     37          1    20001034        2.154090    0.453035    0.339112
     38          1    20001034        0.665263   -0.399706   -1.561027
     39          1    20001034        2.098837   -0.960011   -2.362236
     40          1    20001034        2.541962   -2.540221   -0.507688
     41          1    20001034        0.986871   -2.769645   -1.231431
     42          1    20001033        1.591590   -1.631441    1.535280
     43          1    20001033       -0.603341   -2.059786    2.115065
     44          1    20001034       -1.683847   -3.710211    0.385741
     45          1    20001034       -1.084555   -2.649578   -0.852254
     46          1    20001034       -3.477565   -2.313369   -0.361829
     47          1    20001034       -3.124745   -1.916628    1.286277
     48          1    20001034       -2.020034   -0.321654   -1.065575
     49          1    20001034       -1.867615    0.082351    0.621600
     50          1    20001034       -2.840382    1.942035   -1.531237
     51          1    20001034       -2.546334    2.286499    0.157253
     52          1    20001034       -4.116449    2.656758   -0.566234
     53          1    20001029       -4.524543   -0.934718   -1.501105
     54          1    20001034       -7.512635    0.325930   -2.855103
     55          1    20001034       -7.208869   -1.063189   -1.818684
     56          1    20001034       -6.179313   -0.781325   -3.218956
     57          1    20001029       -3.867804    2.171442    1.816194
     58          1    20001035       -4.613170    2.015330    3.992469
     59          1    20001035       -5.026406    0.321475    3.747070
     60          1    20001035       -6.102550    1.574877    3.150478
     61          1    20001029        3.683401    2.351500    0.005037
     62          1    20001034        6.810101    3.539835    1.097947
     63          1    20001034        5.065957    3.749971    1.312842
     64          1    20001034        5.817972    4.122915   -0.231450
 ---------------------------------------------------------------------

 SCF Done:  E(RHF) =  -1295.62235418     A.U. after   14 cycles

 The electronic state is 1-A.
 Alpha  occ. eigenvalues --  -20.53790 -20.52326 -20.51997 -20.51997 -15.59773
 Alpha  occ. eigenvalues --  -15.58360 -15.57808 -15.57661 -11.36110 -11.34522
 Alpha  occ. eigenvalues --  -11.34078 -11.34011 -11.29211 -11.28885 -11.25485
 Alpha  occ. eigenvalues --  -11.24975 -11.24487 -11.24242 -11.23611 -11.22955
 Alpha  occ. eigenvalues --  -11.22731 -11.22666 -11.22598 -11.22358 -11.22212
 Alpha  occ. eigenvalues --  -11.22112 -11.21782 -11.21028  -1.40728  -1.39706
 Alpha  occ. eigenvalues --   -1.38853  -1.38438  -1.25594  -1.23846  -1.23064
 Alpha  occ. eigenvalues --   -1.22209  -1.10960  -1.09475  -1.07405  -1.04459
 Alpha  occ. eigenvalues --   -1.01448  -0.99508  -0.98997  -0.95631  -0.95478
 Alpha  occ. eigenvalues --   -0.94920  -0.92404  -0.87391  -0.85993  -0.82870
 Alpha  occ. eigenvalues --   -0.81551  -0.79823  -0.79056  -0.77315  -0.77266
 Alpha  occ. eigenvalues --   -0.72315  -0.71618  -0.71312  -0.69127  -0.68215
 Alpha  occ. eigenvalues --   -0.66464  -0.66019  -0.64882  -0.64386  -0.64017
 Alpha  occ. eigenvalues --   -0.62741  -0.62467  -0.61981  -0.61703  -0.61427
 Alpha  occ. eigenvalues --   -0.60919  -0.60111  -0.59806  -0.58973  -0.58484
 Alpha  occ. eigenvalues --   -0.58398  -0.57887  -0.57089  -0.56642  -0.56439
 Alpha  occ. eigenvalues --   -0.55847  -0.55449  -0.55159  -0.54680  -0.54532
 Alpha  occ. eigenvalues --   -0.53575  -0.52951  -0.52776  -0.51951  -0.51697
 Alpha  occ. eigenvalues --   -0.51188  -0.50225  -0.50096  -0.49515  -0.48709
 Alpha  occ. eigenvalues --   -0.48196  -0.47160  -0.46943  -0.44841  -0.43017
 Alpha  occ. eigenvalues --   -0.42107  -0.41835  -0.41347  -0.39441  -0.39219
 Alpha  occ. eigenvalues --   -0.38669  -0.38446  -0.34632
 Alpha virt. eigenvalues --    0.17713   0.18643   0.18975   0.19822   0.19948
 Alpha virt. eigenvalues --    0.21014   0.21340   0.22815   0.23194   0.23413
 Alpha virt. eigenvalues --    0.25325   0.25638   0.25944   0.26907   0.27119

 Mulliken atomic charges:
              1
     1  C   -0.279965
     2  N   -0.783338
     3  C    0.822006
     4  O   -0.628366
     5  C    0.102633
     6  C   -0.472775
     7  C   -0.334059
     8  C   -0.313256
     9  C   -0.373734
    10  C   -0.187369
    11  C   -0.169336
    12  C   -0.347668
    13  C   -0.323347
    14  C   -0.322929
    15  C    0.090699
    16  C   -0.509097
    17  N   -0.787392
    18  C    0.767010
    19  C   -0.595803
    20  O   -0.614352
    21  C    0.819825
    22  O   -0.638735
    23  N   -0.807052
    24  C   -0.275266
    25  N   -0.843057
    26  C    0.744602
    27  C   -0.588687
    28  O   -0.591358
    29  H    0.187057
    30  H    0.198565
    31  H    0.163241
    32  H    0.391283
    33  H    0.198546
    34  H    0.144149
    35  H    0.213070
    36  H    0.160625
    37  H    0.181598
    38  H    0.162738
    39  H    0.179807
    40  H    0.213881
    41  H    0.173679
    42  H    0.181762
    43  H    0.172350
    44  H    0.181658
    45  H    0.162039
    46  H    0.155288
    47  H    0.191070
    48  H    0.176120
    49  H    0.183828
    50  H    0.183326
    51  H    0.145415
    52  H    0.226961
    53  H    0.390450
    54  H    0.211554
    55  H    0.209596
    56  H    0.177294
    57  H    0.395013
    58  H    0.164166
    59  H    0.197799
    60  H    0.186497
    61  H    0.382169
    62  H    0.219137
    63  H    0.176882
    64  H    0.201550
 Sum of Mulliken atomic charges =   0.00000

 Dipole moment (field-independent basis, Debye):
    X=             -0.0763    Y=              3.9768    Z=              1.8899  Tot=              4.4037
 Quadrupole moment (field-independent basis, Debye-Ang):
   XX=           -234.1163   YY=           -164.3452   ZZ=           -159.6545
   XY=             26.2801   XZ=             18.2685   YZ=              7.2799

 Normal termination of Gaussian 09 at Thu Dec  5 18:34:58 2019.
