 Gaussian 09, Revision A.02,
 Gaussian 09:  EM64L-G09RevA.02 11-Jun-2009

 ---------------------------------
 #SP HF/6-31G* Geom=(ModRedundant)
 ---------------------------------

 ------------
 paramfit run
 ------------
 Symbolic Z-matrix:
 Charge =  0 Multiplicity = 1

                         Standard orientation:
 ---------------------------------------------------------------------
 Center     Atomic      Atomic             Coordinates (Angstroms)
 Number     Number       Type             X           Y           Z
 ---------------------------------------------------------------------
      1          6    20001001       -4.454719    2.956836   -0.665684
      2          7    20001014       -4.504332    1.628482   -0.091001
      3          6    20001002       -4.842176    0.570474   -0.864687
      4          8    20001024       -4.889334    0.635395   -2.061895
      5          6    90000001       -5.033320   -0.773659   -0.139322
      6          6    90000002       -5.841663   -1.725487   -1.027266
      7          6    90000002       -3.653422   -1.379852    0.234863
      8          6    90000002       -2.654675   -1.713092   -0.888121
      9          6    90000002       -1.784568   -0.564236   -1.435552
     10          6    20001004       -0.958385    0.136641   -0.382712
     11          6    20001004        0.317161   -0.063619   -0.093516
     12          6    90000002        1.263185   -1.044052   -0.744318
     13          6    90000002        2.735474   -0.594736   -0.751148
     14          6    90000002        3.302018   -0.400320    0.661701
     15          6    90000002        4.820658   -0.121476    0.805316
     16          6    90000002        5.114423    0.093926    2.298887
     17          7    20001014        5.553326   -1.287159    0.330010
     18          6    20001002        6.912269   -1.272399    0.203082
     19          6    20001001        7.485644   -2.385743   -0.643389
     20          8    20001024        7.605789   -0.442054    0.721445
     21          6    20001002        5.187082    1.080598   -0.094392
     22          8    20001024        5.407566    0.916923   -1.264233
     23          7    20001014        5.145885    2.310177    0.462763
     24          6    20001001        5.526834    3.474572   -0.310066
     25          7    20001014       -5.711779   -0.569230    1.148829
     26          6    20001002       -6.955116   -0.022540    1.270958
     27          6    20001001       -7.615787   -0.222587    2.619147
     28          8    20001024       -7.484996    0.583291    0.383075
     29          1    20001035       -5.435769    3.299925   -0.973548
     30          1    20001035       -3.804684    2.957231   -1.528341
     31          1    20001035       -4.055037    3.638852    0.074222
     32          1    20001029       -4.717886    1.557742    0.876303
     33          1    20001034       -5.364344   -1.866797   -1.984936
     34          1    20001034       -5.936419   -2.687681   -0.532857
     35          1    20001034       -6.828102   -1.324292   -1.208675
     36          1    20001034       -3.873246   -2.310139    0.753962
     37          1    20001034       -3.178207   -0.730248    0.963193
     38          1    20001034       -1.983767   -2.468013   -0.488629
     39          1    20001034       -3.173011   -2.180283   -1.719045
     40          1    20001034       -2.405997    0.163953   -1.940459
     41          1    20001034       -1.139272   -0.986677   -2.197766
     42          1    20001033       -1.482402    0.886701    0.187313
     43          1    20001033        0.744748    0.538274    0.693031
     44          1    20001034        0.962043   -1.234512   -1.767305
     45          1    20001034        1.185889   -1.997446   -0.223107
     46          1    20001034        3.306180   -1.340851   -1.297026
     47          1    20001034        2.826581    0.322791   -1.317426
     48          1    20001034        3.091766   -1.284395    1.259813
     49          1    20001034        2.780739    0.424478    1.133215
     50          1    20001034        4.922922   -0.832735    2.827286
     51          1    20001034        4.462038    0.850346    2.722684
     52          1    20001034        6.144408    0.370790    2.466865
     53          1    20001029        5.078862   -1.840064   -0.346667
     54          1    20001034        8.526375   -2.521174   -0.391201
     55          1    20001034        7.415020   -2.097572   -1.687944
     56          1    20001034        6.949634   -3.318898   -0.508126
     57          1    20001029        5.200231    2.383319    1.451200
     58          1    20001035        5.309964    4.361131    0.271227
     59          1    20001035        4.956878    3.506278   -1.227002
     60          1    20001035        6.582214    3.462643   -0.562621
     61          1    20001029       -5.415899   -1.165548    1.889375
     62          1    20001034       -8.371271    0.537696    2.754004
     63          1    20001034       -6.903811   -0.179392    3.435709
     64          1    20001034       -8.096766   -1.195242    2.639244
 ---------------------------------------------------------------------

 SCF Done:  E(RHF) =  -1295.61979865     A.U. after   14 cycles

 The electronic state is 1-A.
 Alpha  occ. eigenvalues --  -20.53674 -20.52209 -20.51859 -20.51813 -15.59635
 Alpha  occ. eigenvalues --  -15.58147 -15.57704 -15.57537 -11.35993 -11.34415
 Alpha  occ. eigenvalues --  -11.33900 -11.33874 -11.29052 -11.28788 -11.25229
 Alpha  occ. eigenvalues --  -11.24880 -11.24386 -11.24031 -11.23657 -11.22732
 Alpha  occ. eigenvalues --  -11.22643 -11.22593 -11.22507 -11.22213 -11.22012
 Alpha  occ. eigenvalues --  -11.21894 -11.21585 -11.20888  -1.40610  -1.39557
 Alpha  occ. eigenvalues --   -1.38717  -1.38284  -1.25457  -1.23736  -1.22854
 Alpha  occ. eigenvalues --   -1.22085  -1.10787  -1.09394  -1.07270  -1.04355
 Alpha  occ. eigenvalues --   -1.01325  -0.99378  -0.98872  -0.95517  -0.95271
 Alpha  occ. eigenvalues --   -0.94717  -0.92275  -0.87236  -0.85866  -0.82845
 Alpha  occ. eigenvalues --   -0.81427  -0.79717  -0.78867  -0.77189  -0.77093
 Alpha  occ. eigenvalues --   -0.72220  -0.71521  -0.71185  -0.69034  -0.68085
 Alpha  occ. eigenvalues --   -0.66051  -0.65843  -0.64892  -0.64125  -0.63997
 Alpha  occ. eigenvalues --   -0.62599  -0.62224  -0.61821  -0.61613  -0.61411
 Alpha  occ. eigenvalues --   -0.60942  -0.59936  -0.59608  -0.58847  -0.58509
 Alpha  occ. eigenvalues --   -0.58332  -0.57886  -0.56778  -0.56477  -0.56249
 Alpha  occ. eigenvalues --   -0.55508  -0.55237  -0.54950  -0.54561  -0.54249
 Alpha  occ. eigenvalues --   -0.53407  -0.52830  -0.52713  -0.52050  -0.51556
 Alpha  occ. eigenvalues --   -0.51053  -0.50248  -0.50041  -0.49521  -0.48674
 Alpha  occ. eigenvalues --   -0.48428  -0.46955  -0.46323  -0.44497  -0.42886
 Alpha  occ. eigenvalues --   -0.41965  -0.41694  -0.41231  -0.39306  -0.39044
 Alpha  occ. eigenvalues --   -0.38496  -0.38321  -0.34420
 Alpha virt. eigenvalues --    0.17514   0.18772   0.19469   0.19955   0.20180
 Alpha virt. eigenvalues --    0.21321   0.21723   0.22706   0.23356   0.24013
 Alpha virt. eigenvalues --    0.25152   0.25724   0.26268   0.26506   0.27727

 Mulliken atomic charges:
              1
     1  C   -0.279764
     2  N   -0.783283
     3  C    0.822138
     4  O   -0.628393
     5  C    0.102382
     6  C   -0.472713
     7  C   -0.334145
     8  C   -0.310894
     9  C   -0.371860
    10  C   -0.186205
    11  C   -0.173111
    12  C   -0.345939
    13  C   -0.324671
    14  C   -0.331380
    15  C    0.093446
    16  C   -0.509446
    17  N   -0.788254
    18  C    0.767251
    19  C   -0.595710
    20  O   -0.613871
    21  C    0.820315
    22  O   -0.638614
    23  N   -0.806826
    24  C   -0.275611
    25  N   -0.843053
    26  C    0.744569
    27  C   -0.588669
    28  O   -0.591668
    29  H    0.186820
    30  H    0.198777
    31  H    0.162501
    32  H    0.391185
    33  H    0.198669
    34  H    0.143956
    35  H    0.212572
    36  H    0.160947
    37  H    0.182037
    38  H    0.163807
    39  H    0.179274
    40  H    0.211963
    41  H    0.172097
    42  H    0.180541
    43  H    0.170591
    44  H    0.181316
    45  H    0.163417
    46  H    0.156240
    47  H    0.199060
    48  H    0.176788
    49  H    0.179991
    50  H    0.184137
    51  H    0.147642
    52  H    0.227066
    53  H    0.389972
    54  H    0.211491
    55  H    0.209752
    56  H    0.176629
    57  H    0.395479
    58  H    0.164840
    59  H    0.198957
    60  H    0.185849
    61  H    0.382479
    62  H    0.218716
    63  H    0.177110
    64  H    0.201316
 Sum of Mulliken atomic charges =   0.00000

 Dipole moment (field-independent basis, Debye):
    X=             -1.4021    Y=             -2.3243    Z=              6.6765  Tot=              7.2072
 Quadrupole moment (field-independent basis, Debye-Ang):
   XX=           -222.6946   YY=           -151.5346   ZZ=           -172.1799
   XY=              7.9243   XZ=            -28.8280   YZ=              7.7537

 Normal termination of Gaussian 09 at Thu Dec  5 19:03:01 2019.
