 Gaussian 09, Revision A.02,
 Gaussian 09:  EM64L-G09RevA.02 11-Jun-2009

 ---------------------------------
 #SP HF/6-31G* Geom=(ModRedundant)
 ---------------------------------

 ------------
 paramfit run
 ------------
 Symbolic Z-matrix:
 Charge =  0 Multiplicity = 1

                         Standard orientation:
 ---------------------------------------------------------------------
 Center     Atomic      Atomic             Coordinates (Angstroms)
 Number     Number       Type             X           Y           Z
 ---------------------------------------------------------------------
      1          6    20001001        3.297128   -1.585319    2.515326
      2          7    20001014        3.642987   -0.605625    1.506452
      3          6    20001002        3.462710   -0.893454    0.196199
      4          8    20001024        2.821049   -1.837007   -0.174912
      5          6    90000001        4.010420    0.133555   -0.811100
      6          6    90000002        4.153617   -0.523953   -2.187697
      7          6    90000002        3.079079    1.374895   -0.868387
      8          6    90000002        1.613323    1.189681   -1.300696
      9          6    90000002        0.605549    0.724127   -0.230982
     10          6    20001004        0.537387    1.622453    0.981719
     11          6    20001004       -0.349816    2.571311    1.233303
     12          6    90000002       -1.514194    2.992054    0.369039
     13          6    90000002       -2.401252    1.828496   -0.109318
     14          6    90000002       -3.047327    1.060209    1.051387
     15          6    90000002       -4.103622   -0.022412    0.709600
     16          6    90000002       -4.542438   -0.676725    2.029739
     17          7    20001014       -5.248546    0.627079    0.086028
     18          6    20001002       -6.273259   -0.096479   -0.452008
     19          6    20001001       -7.180046    0.676605   -1.382000
     20          8    20001024       -6.447621   -1.258358   -0.209566
     21          6    20001002       -3.488040   -1.004516   -0.312777
     22          8    20001024       -3.493443   -0.741059   -1.485164
     23          7    20001014       -2.864497   -2.099289    0.173686
     24          6    20001001       -2.310651   -3.085877   -0.730803
     25          7    20001014        5.304781    0.660044   -0.354077
     26          6    20001002        6.405405   -0.116672   -0.141918
     27          6    20001001        7.712603    0.639209   -0.023622
     28          8    20001024        6.345605   -1.309506   -0.043367
     29          1    20001035        3.934000   -2.460838    2.462318
     30          1    20001035        2.271743   -1.898347    2.383714
     31          1    20001035        3.401101   -1.128000    3.491237
     32          1    20001029        4.367986    0.037118    1.724500
     33          1    20001034        3.213766   -0.933729   -2.524887
     34          1    20001034        4.496967    0.214057   -2.906507
     35          1    20001034        4.867866   -1.333280   -2.145693
     36          1    20001034        3.539820    2.054037   -1.582322
     37          1    20001034        3.113836    1.875958    0.093906
     38          1    20001034        1.276708    2.155090   -1.667158
     39          1    20001034        1.558638    0.511143   -2.145664
     40          1    20001034        0.841042   -0.283084    0.087502
     41          1    20001034       -0.365785    0.667133   -0.709620
     42          1    20001033        1.305068    1.455523    1.719902
     43          1    20001033       -0.243561    3.112304    2.160556
     44          1    20001034       -1.160560    3.529373   -0.502568
     45          1    20001034       -2.125981    3.696204    0.931608
     46          1    20001034       -3.159416    2.240642   -0.769393
     47          1    20001034       -1.811047    1.155593   -0.717338
     48          1    20001034       -3.532092    1.763917    1.724686
     49          1    20001034       -2.265280    0.573261    1.622030
     50          1    20001034       -5.051036    0.066277    2.632945
     51          1    20001034       -3.687093   -1.026691    2.598323
     52          1    20001034       -5.223555   -1.497310    1.861039
     53          1    20001029       -5.048242    1.478612   -0.386709
     54          1    20001034       -8.128596    0.166748   -1.455195
     55          1    20001034       -6.722880    0.704791   -2.366546
     56          1    20001034       -7.335139    1.696340   -1.046636
     57          1    20001029       -3.085900   -2.399835    1.093449
     58          1    20001035       -1.755073   -3.811939   -0.151936
     59          1    20001035       -1.641348   -2.605432   -1.429252
     60          1    20001035       -3.085575   -3.595852   -1.293984
     61          1    20001029        5.473216    1.620427   -0.556168
     62          1    20001034        8.423003    0.026484    0.511984
     63          1    20001034        7.592898    1.589353    0.484755
     64          1    20001034        8.103257    0.832817   -1.017457
 ---------------------------------------------------------------------

 SCF Done:  E(RHF) =  -1295.60967116     A.U. after   14 cycles

 The electronic state is 1-A.
 Alpha  occ. eigenvalues --  -20.53637 -20.51881 -20.51806 -20.51301 -15.59583
 Alpha  occ. eigenvalues --  -15.57580 -15.57493 -15.57249 -11.35953 -11.34016
 Alpha  occ. eigenvalues --  -11.33888 -11.33358 -11.28991 -11.28217 -11.25011
 Alpha  occ. eigenvalues --  -11.24377 -11.24341 -11.23914 -11.22934 -11.22580
 Alpha  occ. eigenvalues --  -11.22579 -11.22340 -11.22203 -11.22035 -11.21916
 Alpha  occ. eigenvalues --  -11.21463 -11.21245 -11.20801  -1.40576  -1.39100
 Alpha  occ. eigenvalues --   -1.38738  -1.37821  -1.25414  -1.23267  -1.22202
 Alpha  occ. eigenvalues --   -1.22122  -1.10939  -1.09069  -1.06964  -1.03964
 Alpha  occ. eigenvalues --   -1.01021  -0.99281  -0.98527  -0.95582  -0.95110
 Alpha  occ. eigenvalues --   -0.94223  -0.92109  -0.87470  -0.85420  -0.82810
 Alpha  occ. eigenvalues --   -0.81053  -0.79153  -0.78582  -0.77216  -0.76529
 Alpha  occ. eigenvalues --   -0.72085  -0.71201  -0.71023  -0.68904  -0.67720
 Alpha  occ. eigenvalues --   -0.67055  -0.65829  -0.64305  -0.63818  -0.63256
 Alpha  occ. eigenvalues --   -0.62658  -0.62408  -0.61282  -0.61028  -0.60961
 Alpha  occ. eigenvalues --   -0.60213  -0.59862  -0.59489  -0.58638  -0.58404
 Alpha  occ. eigenvalues --   -0.57993  -0.57577  -0.56737  -0.56535  -0.56077
 Alpha  occ. eigenvalues --   -0.55380  -0.54777  -0.54608  -0.54441  -0.54039
 Alpha  occ. eigenvalues --   -0.52920  -0.52799  -0.52401  -0.51811  -0.51390
 Alpha  occ. eigenvalues --   -0.51067  -0.50690  -0.49772  -0.49434  -0.48414
 Alpha  occ. eigenvalues --   -0.47764  -0.46518  -0.45371  -0.44179  -0.42801
 Alpha  occ. eigenvalues --   -0.41916  -0.41189  -0.40810  -0.39290  -0.38522
 Alpha  occ. eigenvalues --   -0.38364  -0.37896  -0.34441
 Alpha virt. eigenvalues --    0.17226   0.18817   0.19880   0.19993   0.20297
 Alpha virt. eigenvalues --    0.21612   0.21949   0.23103   0.23528   0.24140
 Alpha virt. eigenvalues --    0.25070   0.25740   0.27227   0.27368   0.27668

 Mulliken atomic charges:
              1
     1  C   -0.278911
     2  N   -0.783272
     3  C    0.822631
     4  O   -0.629531
     5  C    0.102453
     6  C   -0.472810
     7  C   -0.334542
     8  C   -0.308728
     9  C   -0.378112
    10  C   -0.174439
    11  C   -0.197420
    12  C   -0.338318
    13  C   -0.333056
    14  C   -0.321294
    15  C    0.089518
    16  C   -0.509284
    17  N   -0.786824
    18  C    0.767399
    19  C   -0.595585
    20  O   -0.613686
    21  C    0.819929
    22  O   -0.643062
    23  N   -0.804484
    24  C   -0.275974
    25  N   -0.843252
    26  C    0.744589
    27  C   -0.588673
    28  O   -0.592178
    29  H    0.186967
    30  H    0.195607
    31  H    0.162795
    32  H    0.391683
    33  H    0.199430
    34  H    0.144612
    35  H    0.212003
    36  H    0.161423
    37  H    0.181506
    38  H    0.163947
    39  H    0.181823
    40  H    0.210528
    41  H    0.176558
    42  H    0.181117
    43  H    0.173769
    44  H    0.179665
    45  H    0.161056
    46  H    0.151608
    47  H    0.205578
    48  H    0.171687
    49  H    0.191669
    50  H    0.182702
    51  H    0.149917
    52  H    0.225872
    53  H    0.389173
    54  H    0.210783
    55  H    0.208634
    56  H    0.175802
    57  H    0.395515
    58  H    0.170138
    59  H    0.201298
    60  H    0.182016
    61  H    0.382799
    62  H    0.218446
    63  H    0.177257
    64  H    0.201533
 Sum of Mulliken atomic charges =   0.00000

 Dipole moment (field-independent basis, Debye):
    X=              3.6970    Y=              7.0553    Z=              2.6547  Tot=              8.3960
 Quadrupole moment (field-independent basis, Debye-Ang):
   XX=           -167.7875   YY=           -171.4826   ZZ=           -165.9076
   XY=             10.4332   XZ=             -2.1762   YZ=             -8.1611

 Normal termination of Gaussian 09 at Thu Dec  5 19:23:43 2019.
