 Gaussian 09, Revision A.02,
 Gaussian 09:  EM64L-G09RevA.02 11-Jun-2009

 ---------------------------------
 #SP HF/6-31G* Geom=(ModRedundant)
 ---------------------------------

 ------------
 paramfit run
 ------------
 Symbolic Z-matrix:
 Charge =  0 Multiplicity = 1

                         Standard orientation:
 ---------------------------------------------------------------------
 Center     Atomic      Atomic             Coordinates (Angstroms)
 Number     Number       Type             X           Y           Z
 ---------------------------------------------------------------------
      1          6    20001001       -5.068388    2.883893   -0.530061
      2          7    20001014       -4.653891    1.591358   -0.025293
      3          6    20001002       -4.859507    0.478901   -0.768442
      4          8    20001024       -5.167886    0.524722   -1.927126
      5          6    90000001       -4.543418   -0.865513   -0.088719
      6          6    90000002       -5.244088   -1.999650   -0.844125
      7          6    90000002       -3.007386   -1.086200   -0.029503
      8          6    90000002       -2.210556   -1.149271   -1.345072
      9          6    90000002       -1.798704    0.185904   -1.996473
     10          6    20001004       -0.982417    1.083218   -1.096040
     11          6    20001004        0.332854    1.226433   -1.078485
     12          6    90000002        1.344356    0.526821   -1.954361
     13          6    90000002        2.777282    0.526931   -1.391966
     14          6    90000002        2.883133   -0.191717   -0.040206
     15          6    90000002        4.297021   -0.420659    0.554061
     16          6    90000002        4.121594   -1.095579    1.924156
     17          7    20001014        5.034953   -1.309114   -0.333428
     18          6    20001002        6.359904   -1.572734   -0.138316
     19          6    20001001        7.069405   -2.185355   -1.324110
     20          8    20001024        6.925363   -1.338983    0.893554
     21          6    20001002        5.035102    0.936355    0.603800
     22          8    20001024        5.598518    1.355807   -0.371163
     23          7    20001014        4.930097    1.660528    1.738934
     24          6    20001001        5.638415    2.917139    1.870907
     25          7    20001014       -4.970623   -0.841903    1.317826
     26          6    20001002       -6.259966   -0.640891    1.713884
     27          6    20001001       -6.553639   -1.002625    3.155072
     28          8    20001024       -7.099657   -0.198967    0.981926
     29          1    20001035       -6.146403    2.955841   -0.617557
     30          1    20001035       -4.633025    3.051996   -1.504188
     31          1    20001035       -4.714378    3.649723    0.148566
     32          1    20001029       -4.637537    1.470530    0.960313
     33          1    20001034       -4.954794   -2.014026   -1.883853
     34          1    20001034       -4.983233   -2.951075   -0.390272
     35          1    20001034       -6.316078   -1.872591   -0.803861
     36          1    20001034       -2.867711   -2.039631    0.475154
     37          1    20001034       -2.576112   -0.331825    0.621037
     38          1    20001034       -1.300104   -1.699762   -1.126777
     39          1    20001034       -2.750766   -1.739366   -2.078103
     40          1    20001034       -2.677319    0.723223   -2.329171
     41          1    20001034       -1.237994   -0.054826   -2.892847
     42          1    20001033       -1.552852    1.671217   -0.395344
     43          1    20001033        0.743500    1.922466   -0.363874
     44          1    20001034        1.366283    0.979183   -2.938412
     45          1    20001034        1.021261   -0.503035   -2.101325
     46          1    20001034        3.422102    0.058371   -2.130229
     47          1    20001034        3.124460    1.547483   -1.298308
     48          1    20001034        2.416355   -1.171564   -0.114709
     49          1    20001034        2.315545    0.367320    0.694418
     50          1    20001034        3.690754   -2.078640    1.774000
     51          1    20001034        3.439146   -0.534570    2.554166
     52          1    20001034        5.066076   -1.215942    2.433278
     53          1    20001029        4.751265   -1.289143   -1.286231
     54          1    20001034        7.960517   -2.688750   -0.981220
     55          1    20001034        7.358705   -1.389065   -2.003338
     56          1    20001034        6.436882   -2.882607   -1.862751
     57          1    20001029        4.675498    1.192434    2.576416
     58          1    20001035        5.329161    3.392946    2.792260
     59          1    20001035        5.392805    3.563267    1.040954
     60          1    20001035        6.713979    2.773407    1.886914
     61          1    20001029       -4.384657   -1.336714    1.952927
     62          1    20001034       -7.435004   -0.467225    3.476811
     63          1    20001034       -5.724241   -0.770748    3.813769
     64          1    20001034       -6.752524   -2.067436    3.221582
 ---------------------------------------------------------------------

 SCF Done:  E(RHF) =  -1295.62108559     A.U. after   14 cycles

 The electronic state is 1-A.
 Alpha  occ. eigenvalues --  -20.53737 -20.52296 -20.51952 -20.51936 -15.59709
 Alpha  occ. eigenvalues --  -15.58300 -15.57787 -15.57602 -11.36057 -11.34497
 Alpha  occ. eigenvalues --  -11.34031 -11.33949 -11.29138 -11.28862 -11.25406
 Alpha  occ. eigenvalues --  -11.24927 -11.24441 -11.24141 -11.23669 -11.22867
 Alpha  occ. eigenvalues --  -11.22714 -11.22656 -11.22587 -11.22251 -11.22122
 Alpha  occ. eigenvalues --  -11.21920 -11.21695 -11.20967  -1.40674  -1.39669
 Alpha  occ. eigenvalues --   -1.38793  -1.38399  -1.25531  -1.23821  -1.23005
 Alpha  occ. eigenvalues --   -1.22151  -1.10854  -1.09461  -1.07340  -1.04438
 Alpha  occ. eigenvalues --   -1.01400  -0.99452  -0.98957  -0.95577  -0.95408
 Alpha  occ. eigenvalues --   -0.94836  -0.92331  -0.87307  -0.85922  -0.82816
 Alpha  occ. eigenvalues --   -0.81498  -0.79801  -0.78989  -0.77257  -0.77219
 Alpha  occ. eigenvalues --   -0.72377  -0.71642  -0.71264  -0.69090  -0.68132
 Alpha  occ. eigenvalues --   -0.66051  -0.65806  -0.65033  -0.64302  -0.64055
 Alpha  occ. eigenvalues --   -0.62677  -0.62364  -0.61850  -0.61632  -0.61438
 Alpha  occ. eigenvalues --   -0.60856  -0.60026  -0.59875  -0.58888  -0.58434
 Alpha  occ. eigenvalues --   -0.58372  -0.57813  -0.57137  -0.56543  -0.56256
 Alpha  occ. eigenvalues --   -0.55845  -0.55450  -0.55091  -0.54684  -0.54525
 Alpha  occ. eigenvalues --   -0.53548  -0.52878  -0.52753  -0.51980  -0.51555
 Alpha  occ. eigenvalues --   -0.51129  -0.50201  -0.50119  -0.49307  -0.48638
 Alpha  occ. eigenvalues --   -0.48470  -0.47059  -0.46702  -0.44790  -0.42961
 Alpha  occ. eigenvalues --   -0.42040  -0.41799  -0.41318  -0.39379  -0.39173
 Alpha  occ. eigenvalues --   -0.38618  -0.38387  -0.34419
 Alpha virt. eigenvalues --    0.17424   0.18711   0.19299   0.19892   0.20111
 Alpha virt. eigenvalues --    0.20977   0.21349   0.22683   0.23188   0.23736
 Alpha virt. eigenvalues --    0.25311   0.25628   0.25856   0.26679   0.27595

 Mulliken atomic charges:
              1
     1  C   -0.279859
     2  N   -0.783223
     3  C    0.821994
     4  O   -0.628465
     5  C    0.102373
     6  C   -0.472736
     7  C   -0.333829
     8  C   -0.311451
     9  C   -0.372894
    10  C   -0.186108
    11  C   -0.178447
    12  C   -0.338703
    13  C   -0.331207
    14  C   -0.321528
    15  C    0.090644
    16  C   -0.509132
    17  N   -0.787446
    18  C    0.766999
    19  C   -0.595769
    20  O   -0.614021
    21  C    0.819491
    22  O   -0.638639
    23  N   -0.807164
    24  C   -0.275478
    25  N   -0.843053
    26  C    0.744577
    27  C   -0.588674
    28  O   -0.591522
    29  H    0.186897
    30  H    0.198623
    31  H    0.163024
    32  H    0.391242
    33  H    0.198538
    34  H    0.144013
    35  H    0.212828
    36  H    0.160829
    37  H    0.182037
    38  H    0.161956
    39  H    0.179564
    40  H    0.213487
    41  H    0.173099
    42  H    0.180788
    43  H    0.171253
    44  H    0.184996
    45  H    0.162079
    46  H    0.156889
    47  H    0.193456
    48  H    0.175705
    49  H    0.181458
    50  H    0.183778
    51  H    0.147160
    52  H    0.226863
    53  H    0.390175
    54  H    0.211559
    55  H    0.209696
    56  H    0.176958
    57  H    0.395524
    58  H    0.164660
    59  H    0.197980
    60  H    0.186397
    61  H    0.382384
    62  H    0.218928
    63  H    0.177031
    64  H    0.201411
 Sum of Mulliken atomic charges =   0.00000

 Dipole moment (field-independent basis, Debye):
    X=             -0.2270    Y=             -1.7734    Z=              5.0511  Tot=              5.3582
 Quadrupole moment (field-independent basis, Debye-Ang):
   XX=           -238.2526   YY=           -161.0095   ZZ=           -160.6338
   XY=              4.1988   XZ=            -30.1668   YZ=              9.3828

 Normal termination of Gaussian 09 at Thu Dec  5 18:17:53 2019.
