 Gaussian 09, Revision A.02,
 Gaussian 09:  EM64L-G09RevA.02 11-Jun-2009

 ---------------------------------
 #SP HF/6-31G* Geom=(ModRedundant)
 ---------------------------------

 ------------
 paramfit run
 ------------
 Symbolic Z-matrix:
 Charge =  0 Multiplicity = 1

                         Standard orientation:
 ---------------------------------------------------------------------
 Center     Atomic      Atomic             Coordinates (Angstroms)
 Number     Number       Type             X           Y           Z
 ---------------------------------------------------------------------
      1          6    20001001       -3.508040    2.592631    1.354588
      2          7    20001014       -3.905651    1.253780    0.971668
      3          6    20001002       -3.968230    0.916731   -0.337756
      4          8    20001024       -3.496882    1.600904   -1.203484
      5          6    90000001       -4.558742   -0.467784   -0.659938
      6          6    90000002       -4.988289   -0.512930   -2.130071
      7          6    90000002       -3.523226   -1.578843   -0.336121
      8          6    90000002       -2.173035   -1.579957   -1.075458
      9          6    90000002       -1.061952   -0.656905   -0.536844
     10          6    20001004       -0.706914   -0.902331    0.910910
     11          6    20001004        0.303860   -1.613309    1.383779
     12          6    90000002        1.352950   -2.356869    0.592401
     13          6    90000002        2.484853   -1.467014    0.047865
     14          6    90000002        3.274521   -0.765560    1.161103
     15          6    90000002        4.551510    0.019636    0.764350
     16          6    90000002        5.111786    0.670571    2.039428
     17          7    20001014        5.527369   -0.920879    0.230814
     18          6    20001002        6.694813   -0.494133   -0.333120
     19          6    20001001        7.414239   -1.527790   -1.169054
     20          8    20001024        7.123981    0.615747   -0.181058
     21          6    20001002        4.184741    1.022610   -0.352901
     22          8    20001024        4.143704    0.664481   -1.499194
     23          7    20001014        3.818749    2.266927    0.023540
     24          6    20001001        3.511814    3.270611   -0.974764
     25          7    20001014       -5.700873   -0.755483    0.219946
     26          6    20001002       -6.828963    0.009085    0.270150
     27          6    20001001       -8.013678   -0.637364    0.957661
     28          8    20001024       -6.879935    1.116770   -0.184356
     29          1    20001035       -4.233674    3.334124    1.040595
     30          1    20001035       -2.555505    2.832945    0.905532
     31          1    20001035       -3.406145    2.628124    2.431951
     32          1    20001029       -4.514871    0.765795    1.585676
     33          1    20001034       -4.162717   -0.282002   -2.785842
     34          1    20001034       -5.362519   -1.504486   -2.366727
     35          1    20001034       -5.767739    0.211311   -2.316776
     36          1    20001034       -4.018092   -2.518276   -0.572327
     37          1    20001034       -3.350969   -1.587018    0.735579
     38          1    20001034       -1.799663   -2.598931   -1.031844
     39          1    20001034       -2.325654   -1.359966   -2.126974
     40          1    20001034       -1.348126    0.379551   -0.660245
     41          1    20001034       -0.190978   -0.803703   -1.165882
     42          1    20001033       -1.360080   -0.433688    1.629145
     43          1    20001033        0.404541   -1.674497    2.456104
     44          1    20001034        0.897024   -2.874585   -0.242804
     45          1    20001034        1.783849   -3.128823    1.228804
     46          1    20001034        3.137874   -2.093721   -0.553114
     47          1    20001034        2.068440   -0.734147   -0.630616
     48          1    20001034        3.580539   -1.499110    1.903930
     49          1    20001034        2.616103   -0.068605    1.666166
     50          1    20001034        5.432943   -0.112506    2.716355
     51          1    20001034        4.351094    1.250764    2.551388
     52          1    20001034        5.962256    1.300257    1.825101
     53          1    20001029        5.145490   -1.743535   -0.176762
     54          1    20001034        8.454094   -1.251362   -1.254792
     55          1    20001034        6.973536   -1.537807   -2.161427
     56          1    20001034        7.331609   -2.523536   -0.747102
     57          1    20001029        4.091924    2.588520    0.922018
     58          1    20001035        3.127848    4.149740   -0.474142
     59          1    20001035        2.759258    2.893681   -1.651676
     60          1    20001035        4.388032    3.543727   -1.553904
     61          1    20001029       -5.797507   -1.705787    0.501252
     62          1    20001034       -8.689844    0.136907    1.289742
     63          1    20001034       -7.715092   -1.248734    1.801831
     64          1    20001034       -8.535501   -1.270765    0.247516
 ---------------------------------------------------------------------

 SCF Done:  E(RHF) =  -1295.62095768     A.U. after   14 cycles

 The electronic state is 1-A.
 Alpha  occ. eigenvalues --  -20.53646 -20.51942 -20.51858 -20.51448 -15.59601
 Alpha  occ. eigenvalues --  -15.57727 -15.57554 -15.57403 -11.35964 -11.34150
 Alpha  occ. eigenvalues --  -11.33869 -11.33529 -11.29017 -11.28413 -11.24945
 Alpha  occ. eigenvalues --  -11.24770 -11.24354 -11.23983 -11.23193 -11.22678
 Alpha  occ. eigenvalues --  -11.22526 -11.22436 -11.22288 -11.22165 -11.21967
 Alpha  occ. eigenvalues --  -11.21661 -11.21569 -11.20833  -1.40583  -1.39243
 Alpha  occ. eigenvalues --   -1.38716  -1.37963  -1.25428  -1.23425  -1.22441
 Alpha  occ. eigenvalues --   -1.22099  -1.10765  -1.09183  -1.07102  -1.04139
 Alpha  occ. eigenvalues --   -1.01151  -0.99290  -0.98645  -0.95546  -0.95073
 Alpha  occ. eigenvalues --   -0.94457  -0.92128  -0.87305  -0.85592  -0.82817
 Alpha  occ. eigenvalues --   -0.81253  -0.79347  -0.78697  -0.77195  -0.76726
 Alpha  occ. eigenvalues --   -0.71797  -0.71228  -0.71031  -0.68894  -0.67875
 Alpha  occ. eigenvalues --   -0.66865  -0.65844  -0.64415  -0.63872  -0.63521
 Alpha  occ. eigenvalues --   -0.62616  -0.62384  -0.61570  -0.61275  -0.61060
 Alpha  occ. eigenvalues --   -0.60791  -0.59886  -0.59319  -0.58661  -0.58336
 Alpha  occ. eigenvalues --   -0.58191  -0.57725  -0.56560  -0.56402  -0.56211
 Alpha  occ. eigenvalues --   -0.55433  -0.54695  -0.54672  -0.54581  -0.53999
 Alpha  occ. eigenvalues --   -0.53042  -0.52812  -0.52408  -0.51950  -0.51486
 Alpha  occ. eigenvalues --   -0.51027  -0.50318  -0.49727  -0.49222  -0.48346
 Alpha  occ. eigenvalues --   -0.48233  -0.46871  -0.46255  -0.44554  -0.42863
 Alpha  occ. eigenvalues --   -0.41939  -0.41370  -0.40951  -0.39289  -0.38698
 Alpha  occ. eigenvalues --   -0.38337  -0.38122  -0.34449
 Alpha virt. eigenvalues --    0.17130   0.18805   0.19767   0.19995   0.20260
 Alpha virt. eigenvalues --    0.21732   0.21834   0.23118   0.23360   0.23892
 Alpha virt. eigenvalues --    0.25249   0.25651   0.26695   0.27262   0.27488

 Mulliken atomic charges:
              1
     1  C   -0.279441
     2  N   -0.783363
     3  C    0.821854
     4  O   -0.628164
     5  C    0.102244
     6  C   -0.472854
     7  C   -0.334453
     8  C   -0.312017
     9  C   -0.375940
    10  C   -0.174570
    11  C   -0.189444
    12  C   -0.350714
    13  C   -0.313240
    14  C   -0.325422
    15  C    0.090060
    16  C   -0.509543
    17  N   -0.787413
    18  C    0.767334
    19  C   -0.595663
    20  O   -0.613829
    21  C    0.821091
    22  O   -0.640409
    23  N   -0.805627
    24  C   -0.275861
    25  N   -0.843103
    26  C    0.744566
    27  C   -0.588678
    28  O   -0.591861
    29  H    0.187058
    30  H    0.197474
    31  H    0.162250
    32  H    0.391448
    33  H    0.199269
    34  H    0.144209
    35  H    0.212428
    36  H    0.161481
    37  H    0.182114
    38  H    0.164637
    39  H    0.180754
    40  H    0.213002
    41  H    0.178060
    42  H    0.180630
    43  H    0.171526
    44  H    0.177696
    45  H    0.160643
    46  H    0.149417
    47  H    0.200689
    48  H    0.171555
    49  H    0.188299
    50  H    0.183120
    51  H    0.148976
    52  H    0.226256
    53  H    0.389545
    54  H    0.210995
    55  H    0.209241
    56  H    0.176028
    57  H    0.395217
    58  H    0.165380
    59  H    0.200858
    60  H    0.184319
    61  H    0.382681
    62  H    0.218563
    63  H    0.177213
    64  H    0.201433
 Sum of Mulliken atomic charges =   0.00000

 Dipole moment (field-independent basis, Debye):
    X=             -3.3082    Y=             -5.6227    Z=              5.4477  Tot=              8.4992
 Quadrupole moment (field-independent basis, Debye-Ang):
   XX=           -181.3569   YY=           -161.1670   ZZ=           -171.3081
   XY=             14.0735   XZ=             -9.7993   YZ=             10.6920

 Normal termination of Gaussian 09 at Thu Dec  5 18:25:44 2019.
