 Gaussian 09, Revision A.02,
 Gaussian 09:  EM64L-G09RevA.02 11-Jun-2009

 ---------------------------------
 #SP HF/6-31G* Geom=(ModRedundant)
 ---------------------------------

 ------------
 paramfit run
 ------------
 Symbolic Z-matrix:
 Charge =  0 Multiplicity = 1

                         Standard orientation:
 ---------------------------------------------------------------------
 Center     Atomic      Atomic             Coordinates (Angstroms)
 Number     Number       Type             X           Y           Z
 ---------------------------------------------------------------------
      1          6    20001001       -4.824034    2.537647   -0.433001
      2          7    20001014       -4.045866    1.395299   -0.000867
      3          6    20001002       -3.377512    0.650172   -0.912019
      4          8    20001024       -3.209636    1.012188   -2.043614
      5          6    90000001       -2.716004   -0.637684   -0.389316
      6          6    90000002       -2.420345   -1.575910   -1.564117
      7          6    90000002       -1.424591   -0.292236    0.400950
      8          6    90000002       -0.277848    0.435736   -0.323394
      9          6    90000002       -0.374769    1.968577   -0.456214
     10          6    20001004       -0.516360    2.692153    0.862371
     11          6    20001004        0.436921    3.283880    1.563707
     12          6    90000002        1.903849    3.381421    1.219673
     13          6    90000002        2.613237    2.022624    1.078239
     14          6    90000002        2.017217    1.156783   -0.039792
     15          6    90000002        2.747613   -0.160482   -0.408552
     16          6    90000002        1.921128   -0.860417   -1.499635
     17          7    20001014        4.064500    0.171057   -0.935260
     18          6    20001002        4.987528   -0.796556   -1.208764
     19          6    20001001        6.403986   -0.296800   -1.378167
     20          8    20001024        4.703558   -1.957789   -1.308954
     21          6    20001002        2.937022   -0.994628    0.878712
     22          8    20001024        3.864814   -0.777106    1.610706
     23          7    20001014        1.973481   -1.889006    1.187998
     24          6    20001001        2.113435   -2.738849    2.352636
     25          7    20001014       -3.587389   -1.299658    0.592473
     26          6    20001002       -4.845552   -1.743342    0.309910
     27          6    20001001       -5.433912   -2.698837    1.327250
     28          8    20001024       -5.449974   -1.395633   -0.664725
     29          1    20001035       -5.672063    2.241655   -1.039785
     30          1    20001035       -4.202769    3.204019   -1.013260
     31          1    20001035       -5.179932    3.064865    0.443201
     32          1    20001029       -4.340821    0.928474    0.824580
     33          1    20001034       -1.798509   -1.093541   -2.302746
     34          1    20001034       -1.912934   -2.463665   -1.198519
     35          1    20001034       -3.338678   -1.870601   -2.050685
     36          1    20001034       -1.030123   -1.244620    0.748195
     37          1    20001034       -1.703762    0.263706    1.290485
     38          1    20001034        0.627591    0.213622    0.233799
     39          1    20001034       -0.134831    0.011499   -1.311799
     40          1    20001034       -1.206027    2.233878   -1.096517
     41          1    20001034        0.518681    2.302254   -0.972200
     42          1    20001033       -1.516806    2.724709    1.262573
     43          1    20001033        0.146636    3.758538    2.487935
     44          1    20001034        2.428125    3.961197    1.969648
     45          1    20001034        2.004237    3.932695    0.285535
     46          1    20001034        3.666582    2.217063    0.896492
     47          1    20001034        2.566349    1.494972    2.021751
     48          1    20001034        1.953674    1.741996   -0.954681
     49          1    20001034        1.001629    0.892850    0.230888
     50          1    20001034        1.932411   -0.245097   -2.391731
     51          1    20001034        0.885515   -0.973780   -1.196261
     52          1    20001034        2.330900   -1.826947   -1.751916
     53          1    20001029        4.446702    1.030566   -0.612957
     54          1    20001034        6.970537   -1.024211   -1.939375
     55          1    20001034        6.852613   -0.188918   -0.395202
     56          1    20001034        6.440570    0.664474   -1.879162
     57          1    20001029        1.372430   -2.205563    0.464231
     58          1    20001035        1.192269   -3.289446    2.491262
     59          1    20001035        2.296240   -2.131981    3.227233
     60          1    20001035        2.935074   -3.439399    2.243581
     61          1    20001029       -3.119447   -1.748020    1.348482
     62          1    20001034       -6.510559   -2.681599    1.240615
     63          1    20001034       -5.144702   -2.447758    2.341581
     64          1    20001034       -5.086037   -3.704507    1.114148
 ---------------------------------------------------------------------

 SCF Done:  E(RHF) =  -1295.37737508     A.U. after   14 cycles

 The electronic state is 1-A.
 Alpha  occ. eigenvalues --  -20.54019 -20.52298 -20.52131 -20.51944 -15.60027
 Alpha  occ. eigenvalues --  -15.58967 -15.57915 -15.57351 -11.36322 -11.34310
 Alpha  occ. eigenvalues --  -11.34188 -11.34123 -11.29496 -11.28351 -11.26024
 Alpha  occ. eigenvalues --  -11.25185 -11.24697 -11.24653 -11.22661 -11.22435
 Alpha  occ. eigenvalues --  -11.22430 -11.22378 -11.22323 -11.22006 -11.21849
 Alpha  occ. eigenvalues --  -11.21577 -11.21218 -11.19362  -1.40960  -1.39637
 Alpha  occ. eigenvalues --   -1.39149  -1.38278  -1.25873  -1.23767  -1.23321
 Alpha  occ. eigenvalues --   -1.22464  -1.15599  -1.09049  -1.07649  -1.05546
 Alpha  occ. eigenvalues --   -1.01809  -1.00580  -0.98723  -0.96621  -0.95920
 Alpha  occ. eigenvalues --   -0.95590  -0.92178  -0.90110  -0.86208  -0.85431
 Alpha  occ. eigenvalues --   -0.81978  -0.80500  -0.78670  -0.77583  -0.77500
 Alpha  occ. eigenvalues --   -0.73543  -0.71617  -0.71436  -0.70371  -0.69445
 Alpha  occ. eigenvalues --   -0.67952  -0.65902  -0.65801  -0.64653  -0.64296
 Alpha  occ. eigenvalues --   -0.63541  -0.63146  -0.62821  -0.61894  -0.61693
 Alpha  occ. eigenvalues --   -0.61416  -0.60945  -0.59989  -0.59771  -0.58990
 Alpha  occ. eigenvalues --   -0.58698  -0.58198  -0.57765  -0.56725  -0.56018
 Alpha  occ. eigenvalues --   -0.55803  -0.55610  -0.55305  -0.54844  -0.54405
 Alpha  occ. eigenvalues --   -0.53643  -0.53216  -0.52878  -0.52147  -0.51565
 Alpha  occ. eigenvalues --   -0.51158  -0.50834  -0.50186  -0.49867  -0.48961
 Alpha  occ. eigenvalues --   -0.46656  -0.45858  -0.44311  -0.43269  -0.42914
 Alpha  occ. eigenvalues --   -0.41478  -0.41087  -0.39743  -0.39480  -0.38778
 Alpha  occ. eigenvalues --   -0.38565  -0.36583  -0.34914
 Alpha virt. eigenvalues --    0.16960   0.18014   0.18519   0.19266   0.19505
 Alpha virt. eigenvalues --    0.21358   0.21652   0.22406   0.22647   0.24006
 Alpha virt. eigenvalues --    0.24966   0.25997   0.26005   0.26431   0.26823

 Mulliken atomic charges:
              1
     1  C   -0.280352
     2  N   -0.783605
     3  C    0.824105
     4  O   -0.629548
     5  C    0.108983
     6  C   -0.476194
     7  C   -0.316676
     8  C   -0.418499
     9  C   -0.431552
    10  C   -0.175365
    11  C   -0.181298
    12  C   -0.349612
    13  C   -0.282838
    14  C   -0.420834
    15  C    0.106019
    16  C   -0.529966
    17  N   -0.791994
    18  C    0.768162
    19  C   -0.595396
    20  O   -0.616753
    21  C    0.824628
    22  O   -0.638176
    23  N   -0.815581
    24  C   -0.274232
    25  N   -0.844942
    26  C    0.744568
    27  C   -0.589034
    28  O   -0.591144
    29  H    0.187742
    30  H    0.198058
    31  H    0.164293
    32  H    0.392034
    33  H    0.197781
    34  H    0.139500
    35  H    0.217777
    36  H    0.152250
    37  H    0.189436
    38  H    0.248190
    39  H    0.225564
    40  H    0.235821
    41  H    0.199951
    42  H    0.185495
    43  H    0.178391
    44  H    0.176058
    45  H    0.169868
    46  H    0.143430
    47  H    0.181219
    48  H    0.180838
    49  H    0.208086
    50  H    0.189777
    51  H    0.149935
    52  H    0.227893
    53  H    0.391687
    54  H    0.210594
    55  H    0.207908
    56  H    0.177718
    57  H    0.400185
    58  H    0.158448
    59  H    0.199809
    60  H    0.190322
    61  H    0.381930
    62  H    0.219959
    63  H    0.177859
    64  H    0.201321
 Sum of Mulliken atomic charges =   0.00000

 Dipole moment (field-independent basis, Debye):
    X=             -1.7734    Y=              0.1418    Z=              4.9152  Tot=              5.2272
 Quadrupole moment (field-independent basis, Debye-Ang):
   XX=           -187.7365   YY=           -164.7894   ZZ=           -179.3947
   XY=             18.7906   XZ=            -28.8457   YZ=             -6.8506

 Normal termination of Gaussian 09 at Thu Dec  5 18:14:33 2019.
