 Gaussian 09, Revision A.02,
 Gaussian 09:  EM64L-G09RevA.02 11-Jun-2009

 ---------------------------------
 #SP HF/6-31G* Geom=(ModRedundant)
 ---------------------------------

 ------------
 paramfit run
 ------------
 Symbolic Z-matrix:
 Charge =  0 Multiplicity = 1

                         Standard orientation:
 ---------------------------------------------------------------------
 Center     Atomic      Atomic             Coordinates (Angstroms)
 Number     Number       Type             X           Y           Z
 ---------------------------------------------------------------------
      1          6    20001001       -3.343093    2.033447    2.134747
      2          7    20001014       -3.722654    0.882304    1.342252
      3          6    20001002       -3.628474    0.931035   -0.007142
      4          8    20001024       -3.035101    1.801449   -0.581629
      5          6    90000001       -4.208120   -0.269395   -0.776795
      6          6    90000002       -4.450395    0.125994   -2.237210
      7          6    90000002       -3.249564   -1.486431   -0.669114
      8          6    90000002       -1.817576   -1.360404   -1.219717
      9          6    90000002       -0.760371   -0.693872   -0.317114
     10          6    20001004       -0.596421   -1.356859    1.030420
     11          6    20001004        0.328830   -2.231062    1.391579
     12          6    90000002        1.450236   -2.783610    0.544883
     13          6    90000002        2.421901   -1.718011    0.006432
     14          6    90000002        3.134749   -0.946899    1.125427
     15          6    90000002        4.269829    0.031519    0.726754
     16          6    90000002        4.768348    0.713199    2.011371
     17          7    20001014        5.355771   -0.735497    0.131818
     18          6    20001002        6.429828   -0.121729   -0.445023
     19          6    20001001        7.266405   -1.008123   -1.339032
     20          8    20001024        6.696281    1.033360   -0.260868
     21          6    20001002        3.725222    1.007679   -0.340597
     22          8    20001024        3.701208    0.687569   -1.498562
     23          7    20001014        3.192823    2.170470    0.093510
     24          6    20001001        2.710999    3.152021   -0.856545
     25          7    20001014       -5.458637   -0.723972   -0.151498
     26          6    20001002       -6.564672    0.061625   -0.012950
     27          6    20001001       -7.842177   -0.680004    0.321840
     28          8    20001024       -6.530459    1.253370   -0.134255
     29          1    20001035       -4.004774    2.875227    1.965829
     30          1    20001035       -2.335962    2.332924    1.884300
     31          1    20001035       -3.376621    1.758707    3.181527
     32          1    20001029       -4.416220    0.278756    1.717729
     33          1    20001034       -3.543420    0.482131   -2.701425
     34          1    20001034       -4.816501   -0.734969   -2.788524
     35          1    20001034       -5.181883    0.918704   -2.296059
     36          1    20001034       -3.734067   -2.290392   -1.218772
     37          1    20001034       -3.213686   -1.805608    0.367766
     38          1    20001034       -1.478171   -2.370992   -1.427403
     39          1    20001034       -1.831233   -0.845176   -2.174562
     40          1    20001034       -1.002828    0.350669   -0.170448
     41          1    20001034        0.178852   -0.709770   -0.858816
     42          1    20001033       -1.322825   -1.070735    1.773779
     43          1    20001033        0.292322   -2.596922    2.405766
     44          1    20001034        1.049150   -3.333535   -0.297838
     45          1    20001034        2.009328   -3.505206    1.139282
     46          1    20001034        3.140552   -2.220149   -0.635263
     47          1    20001034        1.881541   -1.031445   -0.631900
     48          1    20001034        3.568078   -1.652674    1.830864
     49          1    20001034        2.397462   -0.372780    1.674194
     50          1    20001034        5.221837   -0.037001    2.648653
     51          1    20001034        3.947268    1.156570    2.565113
     52          1    20001034        5.510229    1.468596    1.799880
     53          1    20001029        5.085980   -1.590803   -0.297573
     54          1    20001034        8.251327   -0.578426   -1.440774
     55          1    20001034        6.801051   -1.048500   -2.319307
     56          1    20001034        7.343841   -2.019248   -0.954309
     57          1    20001029        3.443943    2.497363    0.996500
     58          1    20001035        2.218232    3.946869   -0.312194
     59          1    20001035        2.000963    2.691957   -1.527973
     60          1    20001035        3.519156    3.571482   -1.447044
     61          1    20001029       -5.613537   -1.707498   -0.166700
     62          1    20001034       -8.535217    0.008724    0.782625
     63          1    20001034       -7.667442   -1.520588    0.983986
     64          1    20001034       -8.286192   -1.056076   -0.594250
 ---------------------------------------------------------------------

 SCF Done:  E(RHF) =  -1295.61560783     A.U. after   14 cycles

 The electronic state is 1-A.
 Alpha  occ. eigenvalues --  -20.53638 -20.51869 -20.51848 -20.51336 -15.59588
 Alpha  occ. eigenvalues --  -15.57570 -15.57567 -15.57296 -11.35955 -11.34057
 Alpha  occ. eigenvalues --  -11.33878 -11.33405 -11.28998 -11.28274 -11.24988
 Alpha  occ. eigenvalues --  -11.24526 -11.24345 -11.23940 -11.23000 -11.22619
 Alpha  occ. eigenvalues --  -11.22549 -11.22369 -11.22178 -11.22152 -11.21933
 Alpha  occ. eigenvalues --  -11.21525 -11.21416 -11.20809  -1.40577  -1.39140
 Alpha  occ. eigenvalues --   -1.38726  -1.37859  -1.25418  -1.23314  -1.22281
 Alpha  occ. eigenvalues --   -1.22113  -1.10847  -1.09106  -1.07012  -1.04032
 Alpha  occ. eigenvalues --   -1.01064  -0.99273  -0.98562  -0.95568  -0.95068
 Alpha  occ. eigenvalues --   -0.94311  -0.92106  -0.87397  -0.85481  -0.82810
 Alpha  occ. eigenvalues --   -0.81123  -0.79214  -0.78617  -0.77207  -0.76591
 Alpha  occ. eigenvalues --   -0.71877  -0.71202  -0.71020  -0.68883  -0.67772
 Alpha  occ. eigenvalues --   -0.66995  -0.65834  -0.64329  -0.63822  -0.63338
 Alpha  occ. eigenvalues --   -0.62643  -0.62401  -0.61358  -0.61085  -0.61025
 Alpha  occ. eigenvalues --   -0.60467  -0.59867  -0.59395  -0.58631  -0.58359
 Alpha  occ. eigenvalues --   -0.58049  -0.57641  -0.56641  -0.56504  -0.56131
 Alpha  occ. eigenvalues --   -0.55392  -0.54712  -0.54592  -0.54530  -0.54028
 Alpha  occ. eigenvalues --   -0.52965  -0.52801  -0.52404  -0.51810  -0.51412
 Alpha  occ. eigenvalues --   -0.51040  -0.50532  -0.49750  -0.49429  -0.48374
 Alpha  occ. eigenvalues --   -0.47881  -0.46656  -0.45684  -0.44454  -0.42835
 Alpha  occ. eigenvalues --   -0.41927  -0.41248  -0.40852  -0.39287  -0.38576
 Alpha  occ. eigenvalues --   -0.38353  -0.37971  -0.34435
 Alpha virt. eigenvalues --    0.17125   0.18815   0.19851   0.20001   0.20286
 Alpha virt. eigenvalues --    0.21646   0.21910   0.23098   0.23532   0.24048
 Alpha virt. eigenvalues --    0.25137   0.25736   0.26993   0.27305   0.27605

 Mulliken atomic charges:
              1
     1  C   -0.279113
     2  N   -0.783312
     3  C    0.822192
     4  O   -0.628806
     5  C    0.102335
     6  C   -0.472866
     7  C   -0.334788
     8  C   -0.309623
     9  C   -0.378891
    10  C   -0.173115
    11  C   -0.197096
    12  C   -0.343428
    13  C   -0.325443
    14  C   -0.322157
    15  C    0.089594
    16  C   -0.509340
    17  N   -0.787132
    18  C    0.767398
    19  C   -0.595614
    20  O   -0.613753
    21  C    0.820893
    22  O   -0.642182
    23  N   -0.805009
    24  C   -0.276131
    25  N   -0.843187
    26  C    0.744583
    27  C   -0.588674
    28  O   -0.592044
    29  H    0.187022
    30  H    0.196290
    31  H    0.162552
    32  H    0.391596
    33  H    0.199512
    34  H    0.144409
    35  H    0.212189
    36  H    0.161450
    37  H    0.181736
    38  H    0.164332
    39  H    0.181512
    40  H    0.211408
    41  H    0.178847
    42  H    0.180935
    43  H    0.173485
    44  H    0.179232
    45  H    0.160991
    46  H    0.150002
    47  H    0.204973
    48  H    0.171001
    49  H    0.190566
    50  H    0.182830
    51  H    0.149524
    52  H    0.225935
    53  H    0.389247
    54  H    0.210842
    55  H    0.208853
    56  H    0.175854
    57  H    0.395290
    58  H    0.167465
    59  H    0.201762
    60  H    0.183102
    61  H    0.382749
    62  H    0.218486
    63  H    0.177233
    64  H    0.201494
 Sum of Mulliken atomic charges =   0.00000

 Dipole moment (field-independent basis, Debye):
    X=             -3.6186    Y=             -6.6472    Z=              3.8256  Tot=              8.4803
 Quadrupole moment (field-independent basis, Debye-Ang):
   XX=           -171.7478   YY=           -167.8337   ZZ=           -167.8151
   XY=             12.1863   XZ=             -1.8350   YZ=              9.8337

 Normal termination of Gaussian 09 at Thu Dec  5 18:14:01 2019.
