 Gaussian 09, Revision A.02,
 Gaussian 09:  EM64L-G09RevA.02 11-Jun-2009

 ---------------------------------
 #SP HF/6-31G* Geom=(ModRedundant)
 ---------------------------------

 ------------
 paramfit run
 ------------
 Symbolic Z-matrix:
 Charge =  0 Multiplicity = 1

                         Standard orientation:
 ---------------------------------------------------------------------
 Center     Atomic      Atomic             Coordinates (Angstroms)
 Number     Number       Type             X           Y           Z
 ---------------------------------------------------------------------
      1          6    20001001       -4.020248    2.976352    0.052848
      2          7    20001014       -4.283242    1.574005    0.300842
      3          6    20001002       -4.563649    0.746673   -0.733084
      4          8    20001024       -4.389130    1.061994   -1.877576
      5          6    90000001       -4.993780   -0.684967   -0.365960
      6          6    90000002       -5.705920   -1.328915   -1.560125
      7          6    90000002       -3.759245   -1.517118    0.075685
      8          6    90000002       -2.606220   -1.729868   -0.921765
      9          6    90000002       -1.558930   -0.606389   -1.054499
     10          6    20001004       -0.879934   -0.242255    0.244981
     11          6    20001004        0.301531   -0.650115    0.679200
     12          6    90000002        1.263874   -1.582252   -0.017054
     13          6    90000002        2.641818   -0.963888   -0.314483
     14          6    90000002        3.384024   -0.531563    0.957185
     15          6    90000002        4.853696   -0.057187    0.816905
     16          6    90000002        5.338288    0.372984    2.211027
     17          7    20001014        5.659428   -1.175944    0.347108
     18          6    20001002        6.968155   -1.013998   -0.005122
     19          6    20001001        7.554401   -2.145698   -0.817755
     20          8    20001024        7.611074   -0.049355    0.303523
     21          6    20001002        4.909864    1.060979   -0.248588
     22          8    20001024        4.970603    0.783034   -1.416057
     23          7    20001014        4.784506    2.335608    0.179884
     24          6    20001001        4.879355    3.433915   -0.759757
     25          7    20001014       -5.873350   -0.669950    0.811988
     26          6    20001002       -7.068270   -0.014276    0.855939
     27          6    20001001       -7.975005   -0.406556    2.004010
     28          8    20001024       -7.377313    0.820823    0.053916
     29          1    20001035       -4.897772    3.491245   -0.321032
     30          1    20001035       -3.227945    3.076028   -0.674505
     31          1    20001035       -3.704577    3.438061    0.979957
     32          1    20001029       -4.672433    1.331827    1.181845
     33          1    20001034       -5.077656   -1.326451   -2.437742
     34          1    20001034       -5.968122   -2.353708   -1.314592
     35          1    20001034       -6.606612   -0.782992   -1.800227
     36          1    20001034       -4.145806   -2.500929    0.332410
     37          1    20001034       -3.370169   -1.093610    0.996304
     38          1    20001034       -2.083573   -2.626161   -0.600649
     39          1    20001034       -3.003864   -1.949903   -1.907076
     40          1    20001034       -2.016356    0.279690   -1.475200
     41          1    20001034       -0.824672   -0.937447   -1.780516
     42          1    20001033       -1.433378    0.431913    0.878472
     43          1    20001033        0.629468   -0.279188    1.637653
     44          1    20001034        0.840078   -1.931160   -0.950931
     45          1    20001034        1.398902   -2.467053    0.603824
     46          1    20001034        3.220432   -1.697332   -0.869135
     47          1    20001034        2.518413   -0.118279   -0.978220
     48          1    20001034        3.391036   -1.354604    1.668583
     49          1    20001034        2.831638    0.276230    1.422684
     50          1    20001034        5.358943   -0.498296    2.855254
     51          1    20001034        4.659773    1.091851    2.658495
     52          1    20001034        6.333672    0.789799    2.176194
     53          1    20001029        5.168587   -1.860353   -0.181451
     54          1    20001034        8.629971   -2.123492   -0.729919
     55          1    20001034        7.286910   -1.998050   -1.859760
     56          1    20001034        7.179075   -3.112778   -0.501105
     57          1    20001029        4.977696    2.535114    1.132872
     58          1    20001035        4.633051    4.352485   -0.243535
     59          1    20001035        4.177916    3.284635   -1.567423
     60          1    20001035        5.875582    3.517804   -1.181954
     61          1    20001029       -5.766367   -1.437245    1.437576
     62          1    20001034       -8.676199    0.395085    2.184763
     63          1    20001034       -7.420415   -0.618656    2.911201
     64          1    20001034       -8.531330   -1.297236    1.730163
 ---------------------------------------------------------------------

 SCF Done:  E(RHF) =  -1295.62158755     A.U. after   14 cycles

 The electronic state is 1-A.
 Alpha  occ. eigenvalues --  -20.53659 -20.52105 -20.51851 -20.51665 -15.59618
 Alpha  occ. eigenvalues --  -15.57985 -15.57588 -15.57537 -11.35978 -11.34312
 Alpha  occ. eigenvalues --  -11.33865 -11.33753 -11.29035 -11.28650 -11.25067
 Alpha  occ. eigenvalues --  -11.24893 -11.24370 -11.24011 -11.23504 -11.22695
 Alpha  occ. eigenvalues --  -11.22565 -11.22560 -11.22387 -11.22253 -11.22017
 Alpha  occ. eigenvalues --  -11.21886 -11.21582 -11.20865  -1.40595  -1.39432
 Alpha  occ. eigenvalues --   -1.38710  -1.38156  -1.25441  -1.23616  -1.22695
 Alpha  occ. eigenvalues --   -1.22084  -1.10771  -1.09310  -1.07229  -1.04272
 Alpha  occ. eigenvalues --   -1.01275  -0.99341  -0.98788  -0.95519  -0.95171
 Alpha  occ. eigenvalues --   -0.94628  -0.92231  -0.87243  -0.85772  -0.82845
 Alpha  occ. eigenvalues --   -0.81384  -0.79575  -0.78806  -0.77185  -0.76950
 Alpha  occ. eigenvalues --   -0.72004  -0.71368  -0.71141  -0.68986  -0.68035
 Alpha  occ. eigenvalues --   -0.66518  -0.65860  -0.64631  -0.64015  -0.63825
 Alpha  occ. eigenvalues --   -0.62585  -0.62272  -0.61841  -0.61489  -0.61254
 Alpha  occ. eigenvalues --   -0.60941  -0.59907  -0.59407  -0.58763  -0.58486
 Alpha  occ. eigenvalues --   -0.58287  -0.57871  -0.56615  -0.56433  -0.56203
 Alpha  occ. eigenvalues --   -0.55515  -0.54975  -0.54816  -0.54551  -0.53991
 Alpha  occ. eigenvalues --   -0.53160  -0.52826  -0.52590  -0.52140  -0.51567
 Alpha  occ. eigenvalues --   -0.51037  -0.50301  -0.49815  -0.49470  -0.48622
 Alpha  occ. eigenvalues --   -0.48376  -0.46955  -0.46320  -0.44490  -0.42874
 Alpha  occ. eigenvalues --   -0.41949  -0.41571  -0.41123  -0.39294  -0.38908
 Alpha  occ. eigenvalues --   -0.38358  -0.38320  -0.34523
 Alpha virt. eigenvalues --    0.17496   0.18789   0.19594   0.19979   0.20212
 Alpha virt. eigenvalues --    0.21508   0.22000   0.22988   0.23383   0.24048
 Alpha virt. eigenvalues --    0.25268   0.25768   0.26512   0.26721   0.27752

 Mulliken atomic charges:
              1
     1  C   -0.279730
     2  N   -0.783395
     3  C    0.822016
     4  O   -0.628218
     5  C    0.102400
     6  C   -0.472750
     7  C   -0.334304
     8  C   -0.311221
     9  C   -0.373271
    10  C   -0.183114
    11  C   -0.170786
    12  C   -0.352954
    13  C   -0.314129
    14  C   -0.331362
    15  C    0.092272
    16  C   -0.509534
    17  N   -0.787895
    18  C    0.767312
    19  C   -0.595698
    20  O   -0.613887
    21  C    0.820455
    22  O   -0.638913
    23  N   -0.806285
    24  C   -0.275559
    25  N   -0.843068
    26  C    0.744559
    27  C   -0.588672
    28  O   -0.591723
    29  H    0.186949
    30  H    0.198616
    31  H    0.162232
    32  H    0.391249
    33  H    0.198824
    34  H    0.144040
    35  H    0.212530
    36  H    0.161226
    37  H    0.182020
    38  H    0.164253
    39  H    0.179414
    40  H    0.212932
    41  H    0.174164
    42  H    0.180360
    43  H    0.170166
    44  H    0.177711
    45  H    0.160658
    46  H    0.152977
    47  H    0.199893
    48  H    0.174492
    49  H    0.182458
    50  H    0.183734
    51  H    0.147921
    52  H    0.226854
    53  H    0.389865
    54  H    0.211287
    55  H    0.209640
    56  H    0.176393
    57  H    0.395321
    58  H    0.164791
    59  H    0.199470
    60  H    0.185300
    61  H    0.382562
    62  H    0.218650
    63  H    0.177151
    64  H    0.201349
 Sum of Mulliken atomic charges =   0.00000

 Dipole moment (field-independent basis, Debye):
    X=             -2.3045    Y=             -3.6571    Z=              6.7454  Tot=              8.0116
 Quadrupole moment (field-independent basis, Debye-Ang):
   XX=           -205.3228   YY=           -153.2843   ZZ=           -173.6881
   XY=             12.7823   XZ=            -23.0919   YZ=              8.9344

 Normal termination of Gaussian 09 at Thu Dec  5 18:47:15 2019.
