 Gaussian 09, Revision A.02,
 Gaussian 09:  EM64L-G09RevA.02 11-Jun-2009

 ---------------------------------
 #SP HF/6-31G* Geom=(ModRedundant)
 ---------------------------------

 ------------
 paramfit run
 ------------
 Symbolic Z-matrix:
 Charge =  0 Multiplicity = 1

                         Standard orientation:
 ---------------------------------------------------------------------
 Center     Atomic      Atomic             Coordinates (Angstroms)
 Number     Number       Type             X           Y           Z
 ---------------------------------------------------------------------
      1          6    20001001        3.280564   -1.007046    2.830764
      2          7    20001014        3.575613   -0.264134    1.623174
      3          6    20001002        3.306563   -0.808099    0.413289
      4          8    20001024        2.627707   -1.788910    0.283247
      5          6    90000001        3.803851   -0.024304   -0.814619
      6          6    90000002        3.847542   -0.952749   -2.032783
      7          6    90000002        2.890102    1.205168   -1.069694
      8          6    90000002        1.396769    0.977350   -1.365822
      9          6    90000002        0.453171    0.768775   -0.164674
     10          6    20001004        0.477484    1.897282    0.839397
     11          6    20001004       -0.376787    2.902341    0.943481
     12          6    90000002       -1.587946    3.170739    0.082778
     13          6    90000002       -2.390260    1.911735   -0.292411
     14          6    90000002       -2.950220    1.178841    0.934058
     15          6    90000002       -3.924806   -0.003174    0.693918
     16          6    90000002       -4.283922   -0.595609    2.066326
     17          7    20001014       -5.129684    0.511033    0.057213
     18          6    20001002       -6.105016   -0.325131   -0.403886
     19          6    20001001       -7.088481    0.308964   -1.360718
     20          8    20001024       -6.182494   -1.477225   -0.078592
     21          6    20001002       -3.254753   -1.003878   -0.274766
     22          8    20001024       -3.304648   -0.824101   -1.461830
     23          7    20001014       -2.537293   -2.010705    0.268858
     24          6    20001001       -1.926028   -3.012398   -0.580360
     25          7    20001014        5.133054    0.547379   -0.554180
     26          6    20001002        6.232924   -0.200643   -0.253476
     27          6    20001001        7.556591    0.526005   -0.371821
     28          8    20001024        6.161144   -1.346057    0.091509
     29          1    20001035        3.899033   -1.892692    2.920626
     30          1    20001035        2.244088   -1.311074    2.828158
     31          1    20001035        3.454489   -0.363303    3.683817
     32          1    20001029        4.323064    0.388712    1.660509
     33          1    20001034        2.881620   -1.395840   -2.221458
     34          1    20001034        4.155096   -0.387056   -2.907219
     35          1    20001034        4.550385   -1.756430   -1.868365
     36          1    20001034        3.314190    1.710914   -1.934327
     37          1    20001034        2.994761    1.890903   -0.234773
     38          1    20001034        1.052166    1.856805   -1.901944
     39          1    20001034        1.277062    0.142464   -2.048471
     40          1    20001034        0.693126   -0.158504    0.339250
     41          1    20001034       -0.547843    0.642916   -0.562122
     42          1    20001033        1.288605    1.862788    1.548625
     43          1    20001033       -0.202435    3.617964    1.731672
     44          1    20001034       -1.295429    3.671559   -0.832142
     45          1    20001034       -2.241683    3.863193    0.611674
     46          1    20001034       -3.191727    2.217142   -0.959307
     47          1    20001034       -1.761414    1.245523   -0.868210
     48          1    20001034       -3.475072    1.888374    1.570161
     49          1    20001034       -2.120878    0.794636    1.516233
     50          1    20001034       -4.837041    0.146275    2.630462
     51          1    20001034       -3.392340   -0.838071    2.635252
     52          1    20001034       -4.901667   -1.476013    1.971364
     53          1    20001029       -5.006610    1.340391   -0.477326
     54          1    20001034       -7.995279   -0.276340   -1.374695
     55          1    20001034       -6.655019    0.303506   -2.356311
     56          1    20001034       -7.316464    1.334628   -1.091610
     57          1    20001029       -2.715662   -2.262483    1.212311
     58          1    20001035       -1.303433   -3.651301    0.032094
     59          1    20001035       -1.310897   -2.531730   -1.326816
     60          1    20001035       -2.669705   -3.618642   -1.087476
     61          1    20001029        5.302933    1.441111   -0.959064
     62          1    20001034        8.290553    0.015564    0.234582
     63          1    20001034        7.484742    1.562922   -0.063291
     64          1    20001034        7.885127    0.501500   -1.405874
 ---------------------------------------------------------------------

 SCF Done:  E(RHF) =  -1295.60254144     A.U. after   14 cycles

 The electronic state is 1-A.
 Alpha  occ. eigenvalues --  -20.53640 -20.51901 -20.51781 -20.51303 -15.59582
 Alpha  occ. eigenvalues --  -15.57593 -15.57440 -15.57222 -11.35955 -11.33991
 Alpha  occ. eigenvalues --  -11.33906 -11.33336 -11.28990 -11.28189 -11.25032
 Alpha  occ. eigenvalues --  -11.24341 -11.24239 -11.23894 -11.22914 -11.22615
 Alpha  occ. eigenvalues --  -11.22541 -11.22323 -11.22216 -11.21946 -11.21885
 Alpha  occ. eigenvalues --  -11.21416 -11.21010 -11.20805  -1.40580  -1.39087
 Alpha  occ. eigenvalues --   -1.38757  -1.37811  -1.25416  -1.23242  -1.22142
 Alpha  occ. eigenvalues --   -1.22135  -1.11072  -1.09041  -1.06914  -1.03894
 Alpha  occ. eigenvalues --   -1.00986  -0.99312  -0.98506  -0.95599  -0.95204
 Alpha  occ. eigenvalues --   -0.94146  -0.92105  -0.87543  -0.85363  -0.82801
 Alpha  occ. eigenvalues --   -0.81011  -0.79116  -0.78575  -0.77229  -0.76486
 Alpha  occ. eigenvalues --   -0.72402  -0.71208  -0.71015  -0.68937  -0.67678
 Alpha  occ. eigenvalues --   -0.67079  -0.65829  -0.64314  -0.63835  -0.63209
 Alpha  occ. eigenvalues --   -0.62676  -0.62417  -0.61238  -0.61030  -0.60858
 Alpha  occ. eigenvalues --   -0.59974  -0.59883  -0.59583  -0.58668  -0.58426
 Alpha  occ. eigenvalues --   -0.57965  -0.57495  -0.56824  -0.56555  -0.56025
 Alpha  occ. eigenvalues --   -0.55366  -0.54873  -0.54631  -0.54365  -0.54064
 Alpha  occ. eigenvalues --   -0.52883  -0.52801  -0.52403  -0.51828  -0.51399
 Alpha  occ. eigenvalues --   -0.51087  -0.50717  -0.49768  -0.49395  -0.48487
 Alpha  occ. eigenvalues --   -0.47675  -0.46423  -0.45254  -0.43796  -0.42750
 Alpha  occ. eigenvalues --   -0.41902  -0.41149  -0.40788  -0.39299  -0.38490
 Alpha  occ. eigenvalues --   -0.38378  -0.37837  -0.34444
 Alpha virt. eigenvalues --    0.17406   0.18815   0.19900   0.19960   0.20307
 Alpha virt. eigenvalues --    0.21619   0.21936   0.23133   0.23397   0.24106
 Alpha virt. eigenvalues --    0.24920   0.25687   0.27282   0.27591   0.27741

 Mulliken atomic charges:
              1
     1  C   -0.278733
     2  N   -0.783186
     3  C    0.823328
     4  O   -0.630595
     5  C    0.102489
     6  C   -0.472628
     7  C   -0.334291
     8  C   -0.308444
     9  C   -0.377745
    10  C   -0.177378
    11  C   -0.195377
    12  C   -0.332081
    13  C   -0.344134
    14  C   -0.322870
    15  C    0.090126
    16  C   -0.509429
    17  N   -0.786786
    18  C    0.767361
    19  C   -0.595558
    20  O   -0.613593
    21  C    0.820118
    22  O   -0.644371
    23  N   -0.803964
    24  C   -0.275270
    25  N   -0.843277
    26  C    0.744591
    27  C   -0.588677
    28  O   -0.592335
    29  H    0.186883
    30  H    0.195004
    31  H    0.163089
    32  H    0.391781
    33  H    0.198909
    34  H    0.144953
    35  H    0.211800
    36  H    0.161452
    37  H    0.181438
    38  H    0.163568
    39  H    0.182153
    40  H    0.209797
    41  H    0.173281
    42  H    0.181270
    43  H    0.173467
    44  H    0.179717
    45  H    0.161076
    46  H    0.153688
    47  H    0.207944
    48  H    0.173785
    49  H    0.193816
    50  H    0.182623
    51  H    0.150612
    52  H    0.225928
    53  H    0.389261
    54  H    0.210773
    55  H    0.208438
    56  H    0.175804
    57  H    0.396029
    58  H    0.174790
    59  H    0.198629
    60  H    0.180761
    61  H    0.382884
    62  H    0.218416
    63  H    0.177309
    64  H    0.201580
 Sum of Mulliken atomic charges =   0.00000

 Dipole moment (field-independent basis, Debye):
    X=              3.7048    Y=              7.2567    Z=              1.2600  Tot=              8.2446
 Quadrupole moment (field-independent basis, Debye-Ang):
   XX=           -164.3351   YY=           -174.6422   ZZ=           -164.6299
   XY=              8.0319   XZ=             -5.9827   YZ=             -5.4085

 Normal termination of Gaussian 09 at Thu Dec  5 19:17:55 2019.
