 Gaussian 09, Revision A.02,
 Gaussian 09:  EM64L-G09RevA.02 11-Jun-2009

 ---------------------------------
 #SP HF/6-31G* Geom=(ModRedundant)
 ---------------------------------

 ------------
 paramfit run
 ------------
 Symbolic Z-matrix:
 Charge =  0 Multiplicity = 1

                         Standard orientation:
 ---------------------------------------------------------------------
 Center     Atomic      Atomic             Coordinates (Angstroms)
 Number     Number       Type             X           Y           Z
 ---------------------------------------------------------------------
      1          6    20001001        5.156930   -1.933556    2.118691
      2          7    20001014        4.647497   -0.843931    1.312191
      3          6    20001002        4.791805   -0.875195   -0.033286
      4          8    20001024        5.123922   -1.865473   -0.623873
      5          6    90000001        4.373833    0.395141   -0.795475
      6          6    90000002        5.010773    0.390295   -2.189076
      7          6    90000002        2.825634    0.483312   -0.878597
      8          6    90000002        2.050818   -0.638942   -1.592630
      9          6    90000002        1.741467   -1.917664   -0.789007
     10          6    20001004        0.970642   -1.670680    0.486573
     11          6    20001004       -0.332176   -1.798833    0.678925
     12          6    90000002       -1.371925   -2.223074   -0.330379
     13          6    90000002       -2.767582   -1.617871   -0.094930
     14          6    90000002       -2.768767   -0.085095   -0.169141
     15          6    90000002       -4.136223    0.644942   -0.127249
     16          6    90000002       -3.857070    2.156515   -0.153230
     17          7    20001014       -4.897735    0.271854   -1.311494
     18          6    20001002       -6.199442    0.650300   -1.470843
     19          6    20001001       -6.959362   -0.111222   -2.532638
     20          8    20001024       -6.708755    1.520820   -0.821276
     21          6    20001002       -4.912738    0.163289    1.119250
     22          8    20001024       -5.547012   -0.856610    1.081378
     23          7    20001014       -4.762513    0.872859    2.258514
     24          6    20001001       -5.501180    0.506079    3.449332
     25          7    20001014        4.775594    1.596417   -0.049182
     26          6    20001002        6.067968    1.891806    0.270485
     27          6    20001001        6.310059    3.319260    0.715329
     28          8    20001024        6.948768    1.080988    0.216578
     29          1    20001035        6.238776   -1.990532    2.082465
     30          1    20001035        4.751886   -2.870149    1.764491
     31          1    20001035        4.842552   -1.781370    3.143561
     32          1    20001029        4.604872    0.054276    1.733726
     33          1    20001034        4.740430   -0.497968   -2.739384
     34          1    20001034        4.678408    1.264361   -2.741144
     35          1    20001034        6.087939    0.412145   -2.110582
     36          1    20001034        2.613084    1.407695   -1.411100
     37          1    20001034        2.433931    0.613796    0.125306
     38          1    20001034        1.101646   -0.209637   -1.899854
     39          1    20001034        2.563726   -0.920573   -2.506403
     40          1    20001034        2.660110   -2.438580   -0.552142
     41          1    20001034        1.182547   -2.578716   -1.442040
     42          1    20001033        1.566149   -1.358478    1.329197
     43          1    20001033       -0.708396   -1.582167    1.666486
     44          1    20001034       -1.467564   -3.302061   -0.340700
     45          1    20001034       -1.025699   -1.939964   -1.323642
     46          1    20001034       -3.440547   -2.041105   -0.835448
     47          1    20001034       -3.140755   -1.943498    0.867120
     48          1    20001034       -2.276410    0.232368   -1.085841
     49          1    20001034       -2.175951    0.301657    0.651433
     50          1    20001034       -3.405031    2.409510   -1.105192
     51          1    20001034       -3.156036    2.440178    0.624888
     52          1    20001034       -4.764804    2.731564   -0.047978
     53          1    20001029       -4.672835   -0.615953   -1.698702
     54          1    20001034       -7.811700    0.472969   -2.844569
     55          1    20001034       -7.314295   -1.043061   -2.102727
     56          1    20001034       -6.338639   -0.344104   -3.391039
     57          1    20001029       -4.443088    1.810390    2.192839
     58          1    20001035       -5.152183    1.114351    4.273423
     59          1    20001035       -5.326771   -0.534418    3.680793
     60          1    20001035       -6.568703    0.654913    3.322851
     61          1    20001029        4.146153    2.366103   -0.103359
     62          1    20001034        7.219222    3.354057    1.297725
     63          1    20001034        5.486032    3.712416    1.300100
     64          1    20001034        6.435882    3.948562   -0.159855
 ---------------------------------------------------------------------

 SCF Done:  E(RHF) =  -1295.62175371     A.U. after   14 cycles

 The electronic state is 1-A.
 Alpha  occ. eigenvalues --  -20.53753 -20.52306 -20.51967 -20.51955 -15.59729
 Alpha  occ. eigenvalues --  -15.58318 -15.57793 -15.57621 -11.36073 -11.34505
 Alpha  occ. eigenvalues --  -11.34046 -11.33969 -11.29161 -11.28867 -11.25432
 Alpha  occ. eigenvalues --  -11.24943 -11.24455 -11.24171 -11.23652 -11.22896
 Alpha  occ. eigenvalues --  -11.22721 -11.22662 -11.22594 -11.22287 -11.22145
 Alpha  occ. eigenvalues --  -11.21983 -11.21719 -11.20987  -1.40691  -1.39681
 Alpha  occ. eigenvalues --   -1.38812  -1.38412  -1.25550  -1.23829  -1.23024
 Alpha  occ. eigenvalues --   -1.22169  -1.10882  -1.09466  -1.07362  -1.04445
 Alpha  occ. eigenvalues --   -1.01416  -0.99468  -0.98970  -0.95594  -0.95430
 Alpha  occ. eigenvalues --   -0.94860  -0.92354  -0.87331  -0.85939  -0.82822
 Alpha  occ. eigenvalues --   -0.81517  -0.79806  -0.79015  -0.77275  -0.77233
 Alpha  occ. eigenvalues --   -0.72361  -0.71642  -0.71281  -0.69102  -0.68151
 Alpha  occ. eigenvalues --   -0.66151  -0.65919  -0.64971  -0.64331  -0.64040
 Alpha  occ. eigenvalues --   -0.62698  -0.62398  -0.61886  -0.61650  -0.61429
 Alpha  occ. eigenvalues --   -0.60857  -0.60038  -0.59879  -0.58905  -0.58430
 Alpha  occ. eigenvalues --   -0.58382  -0.57823  -0.57148  -0.56560  -0.56301
 Alpha  occ. eigenvalues --   -0.55886  -0.55456  -0.55114  -0.54687  -0.54542
 Alpha  occ. eigenvalues --   -0.53558  -0.52899  -0.52753  -0.51967  -0.51586
 Alpha  occ. eigenvalues --   -0.51149  -0.50203  -0.50108  -0.49338  -0.48652
 Alpha  occ. eigenvalues --   -0.48388  -0.47100  -0.46801  -0.44826  -0.42979
 Alpha  occ. eigenvalues --   -0.42060  -0.41812  -0.41327  -0.39398  -0.39188
 Alpha  occ. eigenvalues --   -0.38634  -0.38406  -0.34484
 Alpha virt. eigenvalues --    0.17543   0.18693   0.19203   0.19872   0.20054
 Alpha virt. eigenvalues --    0.20949   0.21329   0.22700   0.23202   0.23647
 Alpha virt. eigenvalues --    0.25325   0.25712   0.25797   0.26768   0.27454

 Mulliken atomic charges:
              1
     1  C   -0.279892
     2  N   -0.783253
     3  C    0.821983
     4  O   -0.628439
     5  C    0.102445
     6  C   -0.472748
     7  C   -0.333915
     8  C   -0.311189
     9  C   -0.373232
    10  C   -0.187162
    11  C   -0.175134
    12  C   -0.341160
    13  C   -0.329165
    14  C   -0.320633
    15  C    0.090383
    16  C   -0.509106
    17  N   -0.787394
    18  C    0.766983
    19  C   -0.595776
    20  O   -0.614113
    21  C    0.819589
    22  O   -0.638695
    23  N   -0.807114
    24  C   -0.275410
    25  N   -0.843058
    26  C    0.744580
    27  C   -0.588675
    28  O   -0.591477
    29  H    0.186946
    30  H    0.198598
    31  H    0.163099
    32  H    0.391254
    33  H    0.198531
    34  H    0.144051
    35  H    0.212899
    36  H    0.160820
    37  H    0.181915
    38  H    0.161322
    39  H    0.179597
    40  H    0.213778
    41  H    0.173300
    42  H    0.181069
    43  H    0.171536
    44  H    0.184390
    45  H    0.161759
    46  H    0.156424
    47  H    0.192380
    48  H    0.175005
    49  H    0.182336
    50  H    0.183587
    51  H    0.146801
    52  H    0.226844
    53  H    0.390248
    54  H    0.211551
    55  H    0.209668
    56  H    0.177048
    57  H    0.395418
    58  H    0.164542
    59  H    0.197854
    60  H    0.186436
    61  H    0.382341
    62  H    0.218987
    63  H    0.176990
    64  H    0.201454
 Sum of Mulliken atomic charges =   0.00000

 Dipole moment (field-independent basis, Debye):
    X=              0.0821    Y=              4.8218    Z=              1.2991  Tot=              4.9944
 Quadrupole moment (field-independent basis, Debye-Ang):
   XX=           -238.1705   YY=           -167.4741   ZZ=           -154.5627
   XY=             27.3301   XZ=             13.9379   YZ=              5.7586

 Normal termination of Gaussian 09 at Thu Dec  5 18:23:31 2019.
