 Gaussian 09, Revision A.02,
 Gaussian 09:  EM64L-G09RevA.02 11-Jun-2009

 ---------------------------------
 #SP HF/6-31G* Geom=(ModRedundant)
 ---------------------------------

 ------------
 paramfit run
 ------------
 Symbolic Z-matrix:
 Charge =  0 Multiplicity = 1

                         Standard orientation:
 ---------------------------------------------------------------------
 Center     Atomic      Atomic             Coordinates (Angstroms)
 Number     Number       Type             X           Y           Z
 ---------------------------------------------------------------------
      1          6    20001001       -5.246306    2.267110    0.767155
      2          7    20001014       -4.361807    1.128293    0.632990
      3          6    20001002       -3.950736    0.733828   -0.594824
      4          8    20001024       -4.099247    1.411630   -1.573739
      5          6    90000001       -3.151830   -0.580337   -0.658903
      6          6    90000002       -3.167357   -1.120867   -2.092579
      7          6    90000002       -1.701423   -0.349048   -0.154495
      8          6    90000002       -0.803823    0.657104   -0.897199
      9          6    90000002       -0.958255    2.149771   -0.544025
     10          6    20001004       -0.752147    2.459577    0.920153
     11          6    20001004        0.344637    2.919119    1.500362
     12          6    90000002        1.663266    3.246867    0.841916
     13          6    90000002        2.652498    2.068908    0.783617
     14          6    90000002        2.110841    0.879790   -0.021068
     15          6    90000002        3.071902   -0.302465   -0.309651
     16          6    90000002        2.273774   -1.375886   -1.067417
     17          7    20001014        4.158995    0.178262   -1.151470
     18          6    20001002        5.233435   -0.609632   -1.447883
     19          6    20001001        6.433669    0.128505   -1.995053
     20          8    20001024        5.232580   -1.798727   -1.289155
     21          6    20001002        3.673752   -0.785035    1.029614
     22          8    20001024        4.627811   -0.227097    1.501212
     23          7    20001014        3.026689   -1.774986    1.681754
     24          6    20001001        3.564737   -2.308986    2.916075
     25          7    20001014       -3.716135   -1.569332    0.271086
     26          6    20001002       -4.996416   -2.033142    0.197385
     27          6    20001001       -5.273735   -3.285828    1.002363
     28          8    20001024       -5.846258   -1.485742   -0.446247
     29          1    20001035       -6.221209    2.073688    0.334601
     30          1    20001035       -4.815015    3.124562    0.271688
     31          1    20001035       -5.362252    2.492603    1.819801
     32          1    20001029       -4.416240    0.423845    1.330899
     33          1    20001034       -2.775041   -0.394958   -2.788335
     34          1    20001034       -2.565713   -2.023380   -2.144847
     35          1    20001034       -4.177672   -1.353255   -2.396200
     36          1    20001034       -1.212411   -1.318853   -0.214215
     37          1    20001034       -1.740369   -0.092589    0.899541
     38          1    20001034        0.221619    0.374712   -0.677333
     39          1    20001034       -0.924760    0.541258   -1.969266
     40          1    20001034       -1.935315    2.503643   -0.846503
     41          1    20001034       -0.242049    2.697053   -1.146822
     42          1    20001033       -1.608586    2.284489    1.551001
     43          1    20001033        0.305661    3.087169    2.565257
     44          1    20001034        2.145665    4.069663    1.355497
     45          1    20001034        1.466887    3.595385   -0.171280
     46          1    20001034        3.579520    2.436853    0.352780
     47          1    20001034        2.895671    1.756154    1.790534
     48          1    20001034        1.752817    1.230391   -0.986693
     49          1    20001034        1.251878    0.472360    0.499060
     50          1    20001034        1.983539   -0.976006   -2.032012
     51          1    20001034        1.363954   -1.636872   -0.536857
     52          1    20001034        2.861589   -2.265936   -1.234820
     53          1    20001029        4.365252    1.147257   -1.066502
     54          1    20001034        7.060460   -0.566140   -2.533255
     55          1    20001034        6.999367    0.534630   -1.161883
     56          1    20001034        6.147411    0.947019   -2.646572
     57          1    20001029        2.410347   -2.357120    1.165468
     58          1    20001035        2.844681   -2.998256    3.337200
     59          1    20001035        3.735320   -1.505489    3.617446
     60          1    20001035        4.503875   -2.828319    2.754621
     61          1    20001029       -3.054832   -2.164736    0.717986
     62          1    20001034       -6.334175   -3.346783    1.199150
     63          1    20001034       -4.726705   -3.301888    1.938339
     64          1    20001034       -4.979342   -4.154457    0.422175
 ---------------------------------------------------------------------

 SCF Done:  E(RHF) =  -1295.59640073     A.U. after   14 cycles

 The electronic state is 1-A.
 Alpha  occ. eigenvalues --  -20.53812 -20.52425 -20.52172 -20.52014 -15.59798
 Alpha  occ. eigenvalues --  -15.58595 -15.57919 -15.57682 -11.36130 -11.34614
 Alpha  occ. eigenvalues --  -11.34263 -11.34031 -11.29219 -11.29058 -11.25711
 Alpha  occ. eigenvalues --  -11.24997 -11.24512 -11.24286 -11.23534 -11.22784
 Alpha  occ. eigenvalues --  -11.22710 -11.22643 -11.22450 -11.22382 -11.22186
 Alpha  occ. eigenvalues --  -11.22145 -11.21877 -11.21035  -1.40748  -1.39844
 Alpha  occ. eigenvalues --   -1.38869  -1.38572  -1.25619  -1.23981  -1.23283
 Alpha  occ. eigenvalues --   -1.22230  -1.11454  -1.09282  -1.07514  -1.04512
 Alpha  occ. eigenvalues --   -1.01578  -0.99742  -0.99049  -0.95707  -0.95644
 Alpha  occ. eigenvalues --   -0.95219  -0.92310  -0.87529  -0.86409  -0.83744
 Alpha  occ. eigenvalues --   -0.81564  -0.80081  -0.78657  -0.77449  -0.77335
 Alpha  occ. eigenvalues --   -0.72251  -0.71724  -0.71298  -0.69122  -0.68679
 Alpha  occ. eigenvalues --   -0.66644  -0.66098  -0.64942  -0.64652  -0.64026
 Alpha  occ. eigenvalues --   -0.62914  -0.62698  -0.62351  -0.61867  -0.61539
 Alpha  occ. eigenvalues --   -0.61082  -0.60917  -0.59566  -0.59356  -0.58724
 Alpha  occ. eigenvalues --   -0.58363  -0.57871  -0.57112  -0.56922  -0.56432
 Alpha  occ. eigenvalues --   -0.55938  -0.55482  -0.55228  -0.54673  -0.53966
 Alpha  occ. eigenvalues --   -0.53603  -0.53394  -0.52856  -0.52281  -0.51903
 Alpha  occ. eigenvalues --   -0.51120  -0.50363  -0.50166  -0.49952  -0.49155
 Alpha  occ. eigenvalues --   -0.48172  -0.47057  -0.45567  -0.44737  -0.43033
 Alpha  occ. eigenvalues --   -0.42200  -0.41737  -0.41436  -0.39463  -0.39362
 Alpha  occ. eigenvalues --   -0.38837  -0.38464  -0.34698
 Alpha virt. eigenvalues --    0.17310   0.18491   0.18864   0.19258   0.19749
 Alpha virt. eigenvalues --    0.21058   0.21587   0.22815   0.23136   0.24029
 Alpha virt. eigenvalues --    0.24717   0.25431   0.25850   0.26680   0.26948

 Mulliken atomic charges:
              1
     1  C   -0.280008
     2  N   -0.783556
     3  C    0.822215
     4  O   -0.628555
     5  C    0.104286
     6  C   -0.472473
     7  C   -0.333047
     8  C   -0.317691
     9  C   -0.375244
    10  C   -0.180542
    11  C   -0.180124
    12  C   -0.356357
    13  C   -0.301729
    14  C   -0.360313
    15  C    0.103528
    16  C   -0.518932
    17  N   -0.788378
    18  C    0.767103
    19  C   -0.595915
    20  O   -0.614599
    21  C    0.820031
    22  O   -0.638540
    23  N   -0.808756
    24  C   -0.275035
    25  N   -0.843213
    26  C    0.744824
    27  C   -0.588858
    28  O   -0.591270
    29  H    0.187154
    30  H    0.198335
    31  H    0.163393
    32  H    0.391397
    33  H    0.199150
    34  H    0.143336
    35  H    0.213086
    36  H    0.154570
    37  H    0.181464
    38  H    0.164150
    39  H    0.178090
    40  H    0.216266
    41  H    0.169463
    42  H    0.183669
    43  H    0.175120
    44  H    0.177496
    45  H    0.168793
    46  H    0.152973
    47  H    0.191777
    48  H    0.188026
    49  H    0.197927
    50  H    0.189827
    51  H    0.143172
    52  H    0.231153
    53  H    0.391207
    54  H    0.211959
    55  H    0.209420
    56  H    0.178093
    57  H    0.393579
    58  H    0.162470
    59  H    0.198700
    60  H    0.187274
    61  H    0.381122
    62  H    0.219383
    63  H    0.176791
    64  H    0.201366
 Sum of Mulliken atomic charges =   0.00000

 Dipole moment (field-independent basis, Debye):
    X=             -0.0852    Y=             -1.8405    Z=              3.8252  Tot=              4.2458
 Quadrupole moment (field-independent basis, Debye-Ang):
   XX=           -210.8131   YY=           -162.4780   ZZ=           -171.3133
   XY=             22.8320   XZ=            -28.4142   YZ=             -7.3294

 Normal termination of Gaussian 09 at Thu Dec  5 19:00:52 2019.
