 Gaussian 09, Revision A.02,
 Gaussian 09:  EM64L-G09RevA.02 11-Jun-2009

 ---------------------------------
 #SP HF/6-31G* Geom=(ModRedundant)
 ---------------------------------

 ------------
 paramfit run
 ------------
 Symbolic Z-matrix:
 Charge =  0 Multiplicity = 1

                         Standard orientation:
 ---------------------------------------------------------------------
 Center     Atomic      Atomic             Coordinates (Angstroms)
 Number     Number       Type             X           Y           Z
 ---------------------------------------------------------------------
      1          6    20001001       -4.851668    2.786107   -1.146996
      2          7    20001014       -4.630249    1.586698   -0.366204
      3          6    20001002       -4.923796    0.374767   -0.892668
      4          8    20001024       -5.151895    0.216340   -2.059980
      5          6    90000001       -4.817033   -0.828921    0.060811
      6          6    90000002       -5.602858   -2.011341   -0.515562
      7          6    90000002       -3.326107   -1.196383    0.292576
      8          6    90000002       -2.462999   -1.611300   -0.912632
      9          6    90000002       -1.851565   -0.488919   -1.774633
     10          6    20001004       -0.989129    0.480191   -1.000484
     11          6    20001004        0.330154    0.482043   -0.899260
     12          6    90000002        1.300911   -0.485743   -1.532327
     13          6    90000002        2.779381   -0.200674   -1.212286
     14          6    90000002        3.086666   -0.281282    0.289045
     15          6    90000002        4.569181   -0.191217    0.734784
     16          6    90000002        4.595932   -0.234053    2.271305
     17          7    20001014        5.283805   -1.344474    0.204834
     18          6    20001002        6.639539   -1.456483    0.316612
     19          6    20001001        7.271301   -2.485791   -0.592346
     20          8    20001024        7.287441   -0.791962    1.076729
     21          6    20001002        5.189671    1.085561    0.123590
     22          8    20001024        5.610413    1.075828   -1.001936
     23          7    20001014        5.142064    2.215372    0.861993
     24          6    20001001        5.750222    3.434603    0.370238
     25          7    20001014       -5.324457   -0.473516    1.394092
     26          6    20001002       -6.601625   -0.058895    1.632009
     27          6    20001001       -7.025997   -0.085744    3.085730
     28          8    20001024       -7.334072    0.312081    0.759061
     29          1    20001035       -5.905313    2.953933   -1.338348
     30          1    20001035       -4.339529    2.704499   -2.094507
     31          1    20001035       -4.449474    3.631660   -0.603274
     32          1    20001029       -4.689864    1.668192    0.621769
     33          1    20001034       -5.253640   -2.268222   -1.503991
     34          1    20001034       -5.488807   -2.872701    0.135812
     35          1    20001034       -6.651715   -1.764499   -0.592330
     36          1    20001034       -3.335487   -2.036344    0.983659
     37          1    20001034       -2.847038   -0.375989    0.817672
     38          1    20001034       -1.641901   -2.200182   -0.514343
     39          1    20001034       -3.024798   -2.276953   -1.559672
     40          1    20001034       -2.635648    0.060418   -2.279417
     41          1    20001034       -1.270022   -0.965977   -2.555695
     42          1    20001033       -1.525759    1.256355   -0.479226
     43          1    20001033        0.777694    1.260932   -0.301932
     44          1    20001034        1.181348   -0.487899   -2.608973
     45          1    20001034        1.053504   -1.492484   -1.197877
     46          1    20001034        3.381398   -0.913627   -1.768745
     47          1    20001034        3.045887    0.776067   -1.594098
     48          1    20001034        2.700168   -1.217141    0.686941
     49          1    20001034        2.553061    0.514834    0.794827
     50          1    20001034        4.237429   -1.203365    2.597633
     51          1    20001034        3.937436    0.516012    2.696944
     52          1    20001034        5.595165   -0.097263    2.656739
     53          1    20001029        4.901650   -1.736080   -0.625415
     54          1    20001034        8.233072   -2.768003   -0.191830
     55          1    20001034        7.419044   -2.038925   -1.570921
     56          1    20001034        6.648010   -3.365877   -0.707845
     57          1    20001029        5.017143    2.133790    1.843344
     58          1    20001035        5.499178    4.242439    1.044996
     59          1    20001035        5.365066    3.663765   -0.612496
     60          1    20001035        6.829921    3.347624    0.303625
     61          1    20001029       -4.843805   -0.888476    2.161118
     62          1    20001034       -7.853577    0.595372    3.220509
     63          1    20001034       -6.216892    0.185150    3.754696
     64          1    20001034       -7.357210   -1.087052    3.341624
 ---------------------------------------------------------------------

 SCF Done:  E(RHF) =  -1295.61983999     A.U. after   14 cycles

 The electronic state is 1-A.
 Alpha  occ. eigenvalues --  -20.53707 -20.52272 -20.51913 -20.51899 -15.59674
 Alpha  occ. eigenvalues --  -15.58255 -15.57768 -15.57569 -11.36027 -11.34475
 Alpha  occ. eigenvalues --  -11.33995 -11.33913 -11.29097 -11.28851 -11.25348
 Alpha  occ. eigenvalues --  -11.24901 -11.24415 -11.24088 -11.23694 -11.22812
 Alpha  occ. eigenvalues --  -11.22695 -11.22633 -11.22572 -11.22202 -11.22084
 Alpha  occ. eigenvalues --  -11.21845 -11.21646 -11.20931  -1.40644  -1.39638
 Alpha  occ. eigenvalues --   -1.38757  -1.38367  -1.25495  -1.23802  -1.22961
 Alpha  occ. eigenvalues --   -1.22117  -1.10814  -1.09446  -1.07305  -1.04417
 Alpha  occ. eigenvalues --   -1.01369  -0.99421  -0.98929  -0.95546  -0.95361
 Alpha  occ. eigenvalues --   -0.94792  -0.92300  -0.87268  -0.85902  -0.82820
 Alpha  occ. eigenvalues --   -0.81463  -0.79786  -0.78937  -0.77223  -0.77184
 Alpha  occ. eigenvalues --   -0.72365  -0.71620  -0.71231  -0.69068  -0.68109
 Alpha  occ. eigenvalues --   -0.65975  -0.65595  -0.65140  -0.64238  -0.64067
 Alpha  occ. eigenvalues --   -0.62641  -0.62298  -0.61794  -0.61631  -0.61460
 Alpha  occ. eigenvalues --   -0.60898  -0.60002  -0.59796  -0.58872  -0.58474
 Alpha  occ. eigenvalues --   -0.58352  -0.57835  -0.57020  -0.56514  -0.56255
 Alpha  occ. eigenvalues --   -0.55644  -0.55434  -0.55044  -0.54646  -0.54468
 Alpha  occ. eigenvalues --   -0.53522  -0.52845  -0.52757  -0.52008  -0.51531
 Alpha  occ. eigenvalues --   -0.51093  -0.50197  -0.50148  -0.49356  -0.48671
 Alpha  occ. eigenvalues --   -0.48490  -0.46985  -0.46518  -0.44671  -0.42927
 Alpha  occ. eigenvalues --   -0.42005  -0.41769  -0.41295  -0.39344  -0.39136
 Alpha  occ. eigenvalues --   -0.38583  -0.38353  -0.34349
 Alpha virt. eigenvalues --    0.17314   0.18739   0.19376   0.19921   0.20154
 Alpha virt. eigenvalues --    0.21103   0.21423   0.22661   0.23182   0.23818
 Alpha virt. eigenvalues --    0.25209   0.25598   0.26003   0.26546   0.27712

 Mulliken atomic charges:
              1
     1  C   -0.279807
     2  N   -0.783205
     3  C    0.822055
     4  O   -0.628476
     5  C    0.102326
     6  C   -0.472720
     7  C   -0.333864
     8  C   -0.311638
     9  C   -0.372113
    10  C   -0.184777
    11  C   -0.180848
    12  C   -0.337557
    13  C   -0.332096
    14  C   -0.325256
    15  C    0.091571
    16  C   -0.509253
    17  N   -0.787708
    18  C    0.767074
    19  C   -0.595752
    20  O   -0.613903
    21  C    0.819643
    22  O   -0.638549
    23  N   -0.807162
    24  C   -0.275576
    25  N   -0.843045
    26  C    0.744575
    27  C   -0.588673
    28  O   -0.591593
    29  H    0.186825
    30  H    0.198695
    31  H    0.162841
    32  H    0.391213
    33  H    0.198572
    34  H    0.143962
    35  H    0.212706
    36  H    0.160836
    37  H    0.182137
    38  H    0.163138
    39  H    0.179504
    40  H    0.212719
    41  H    0.172233
    42  H    0.180487
    43  H    0.170715
    44  H    0.184365
    45  H    0.163380
    46  H    0.157417
    47  H    0.195995
    48  H    0.177038
    49  H    0.180068
    50  H    0.184092
    51  H    0.147525
    52  H    0.226972
    53  H    0.390072
    54  H    0.211568
    55  H    0.209741
    56  H    0.176820
    57  H    0.395590
    58  H    0.164802
    59  H    0.198354
    60  H    0.186254
    61  H    0.382431
    62  H    0.218829
    63  H    0.177080
    64  H    0.201349
 Sum of Mulliken atomic charges =   0.00000

 Dipole moment (field-independent basis, Debye):
    X=             -0.6189    Y=             -1.0650    Z=              6.0049  Tot=              6.1299
 Quadrupole moment (field-independent basis, Debye-Ang):
   XX=           -234.8777   YY=           -153.0068   ZZ=           -168.7813
   XY=              0.7341   XZ=            -30.4880   YZ=              7.6289

 Normal termination of Gaussian 09 at Thu Dec  5 18:06:50 2019.
