 Gaussian 09, Revision A.02,
 Gaussian 09:  EM64L-G09RevA.02 11-Jun-2009

 ---------------------------------
 #SP HF/6-31G* Geom=(ModRedundant)
 ---------------------------------

 ------------
 paramfit run
 ------------
 Symbolic Z-matrix:
 Charge =  0 Multiplicity = 1

                         Standard orientation:
 ---------------------------------------------------------------------
 Center     Atomic      Atomic             Coordinates (Angstroms)
 Number     Number       Type             X           Y           Z
 ---------------------------------------------------------------------
      1          6    20001001        3.435854    0.961699    2.940817
      2          7    20001014        3.479660    0.810730    1.501187
      3          6    20001002        2.953602   -0.293756    0.921978
      4          8    20001024        2.248900   -1.061127    1.517196
      5          6    90000001        3.191350   -0.451695   -0.590608
      6          6    90000002        2.963808   -1.911714   -0.996081
      7          6    90000002        2.261685    0.509000   -1.380793
      8          6    90000002        0.736448    0.359316   -1.236286
      9          6    90000002        0.064918    1.023350   -0.017786
     10          6    20001004        0.316525    2.509142    0.088954
     11          6    20001004       -0.482320    3.491713   -0.294658
     12          6    90000002       -1.844022    3.370747   -0.935662
     13          6    90000002       -2.423045    1.944475   -0.929040
     14          6    90000002       -2.619785    1.391627    0.488905
     15          6    90000002       -3.359379    0.037819    0.646554
     16          6    90000002       -3.367386   -0.315931    2.142632
     17          7    20001014       -4.729292    0.200432    0.179195
     18          6    20001002       -5.575073   -0.864781    0.065044
     19          6    20001001       -6.806421   -0.613987   -0.775010
     20          8    20001024       -5.364010   -1.923027    0.589173
     21          6    20001002       -2.662949   -1.010318   -0.250730
     22          8    20001024       -2.936717   -1.086237   -1.418298
     23          7    20001014       -1.678647   -1.749492    0.304925
     24          6    20001001       -1.019786   -2.784303   -0.465316
     25          7    20001014        4.553463   -0.025089   -0.942866
     26          6    20001002        5.681422   -0.599490   -0.435477
     27          6    20001001        6.960319   -0.269212   -1.176731
     28          8    20001024        5.668042   -1.304837    0.533257
     29          1    20001035        4.046865    0.220336    3.442809
     30          1    20001035        2.418035    0.859497    3.287694
     31          1    20001035        3.794995    1.950835    3.195731
     32          1    20001029        4.227226    1.252103    1.018882
     33          1    20001034        1.973706   -2.243514   -0.723061
     34          1    20001034        3.087694   -2.011757   -2.070269
     35          1    20001034        3.674175   -2.555577   -0.498341
     36          1    20001034        2.500696    0.350674   -2.430091
     37          1    20001034        2.549890    1.530687   -1.154134
     38          1    20001034        0.298785    0.797560   -2.128481
     39          1    20001034        0.463596   -0.690773   -1.251717
     40          1    20001034        0.392833    0.542441    0.894663
     41          1    20001034       -0.999113    0.828377   -0.092999
     42          1    20001033        1.258547    2.783912    0.535282
     43          1    20001033       -0.135448    4.500451   -0.133761
     44          1    20001034       -1.808887    3.717679   -1.961269
     45          1    20001034       -2.532085    4.035132   -0.414358
     46          1    20001034       -3.365603    1.967931   -1.468862
     47          1    20001034       -1.771831    1.291666   -1.495247
     48          1    20001034       -3.169731    2.116068    1.085795
     49          1    20001034       -1.647777    1.279706    0.954764
     50          1    20001034       -3.962674    0.420322    2.670026
     51          1    20001034       -2.366162   -0.283292    2.559604
     52          1    20001034       -3.800408   -1.288944    2.320046
     53          1    20001029       -4.864044    0.912688   -0.501427
     54          1    20001034       -7.565766   -1.334935   -0.512922
     55          1    20001034       -6.545086   -0.747817   -1.820438
     56          1    20001034       -7.192244    0.391175   -0.643970
     57          1    20001029       -1.649568   -1.831112    1.293763
     58          1    20001035       -0.190938   -3.170743    0.113126
     59          1    20001035       -0.642051   -2.367970   -1.387601
     60          1    20001035       -1.695814   -3.597865   -0.707920
     61          1    20001029        4.646542    0.430395   -1.823445
     62          1    20001034        7.798540   -0.424710   -0.513271
     63          1    20001034        6.969792    0.750532   -1.544948
     64          1    20001034        7.062728   -0.937601   -2.025595
 ---------------------------------------------------------------------

 SCF Done:  E(RHF) =  -1295.55764414     A.U. after   14 cycles

 The electronic state is 1-A.
 Alpha  occ. eigenvalues --  -20.53670 -20.52067 -20.51821 -20.51584 -15.59591
 Alpha  occ. eigenvalues --  -15.57672 -15.57537 -15.57287 -11.35976 -11.34038
 Alpha  occ. eigenvalues --  -11.34028 -11.33519 -11.29007 -11.28325 -11.25080
 Alpha  occ. eigenvalues --  -11.24549 -11.24349 -11.23699 -11.22810 -11.22404
 Alpha  occ. eigenvalues --  -11.22402 -11.22364 -11.22249 -11.22095 -11.21868
 Alpha  occ. eigenvalues --  -11.21361 -11.20929 -11.20202  -1.40618  -1.39245
 Alpha  occ. eigenvalues --   -1.38906  -1.37975  -1.25437  -1.23337  -1.22346
 Alpha  occ. eigenvalues --   -1.22210  -1.12098  -1.08958  -1.06785  -1.03798
 Alpha  occ. eigenvalues --   -1.01045  -0.99728  -0.98572  -0.96230  -0.95663
 Alpha  occ. eigenvalues --   -0.94466  -0.91720  -0.87641  -0.85188  -0.82557
 Alpha  occ. eigenvalues --   -0.81890  -0.79456  -0.78860  -0.77317  -0.76603
 Alpha  occ. eigenvalues --   -0.73394  -0.71264  -0.70887  -0.69068  -0.67812
 Alpha  occ. eigenvalues --   -0.66885  -0.65878  -0.64725  -0.64032  -0.63562
 Alpha  occ. eigenvalues --   -0.62757  -0.62499  -0.61699  -0.61350  -0.60929
 Alpha  occ. eigenvalues --   -0.60670  -0.59758  -0.59363  -0.58694  -0.58322
 Alpha  occ. eigenvalues --   -0.58041  -0.57666  -0.56813  -0.56416  -0.55870
 Alpha  occ. eigenvalues --   -0.55526  -0.55282  -0.54718  -0.54595  -0.54142
 Alpha  occ. eigenvalues --   -0.52994  -0.52820  -0.52554  -0.52373  -0.51441
 Alpha  occ. eigenvalues --   -0.51125  -0.50188  -0.49761  -0.48888  -0.48104
 Alpha  occ. eigenvalues --   -0.47077  -0.46291  -0.44877  -0.43991  -0.42684
 Alpha  occ. eigenvalues --   -0.41978  -0.41317  -0.40693  -0.39371  -0.38626
 Alpha  occ. eigenvalues --   -0.38483  -0.37933  -0.34656
 Alpha virt. eigenvalues --    0.18161   0.18792   0.19634   0.19906   0.20289
 Alpha virt. eigenvalues --    0.21620   0.21699   0.23184   0.23369   0.24313
 Alpha virt. eigenvalues --    0.25189   0.25772   0.27139   0.27546   0.27881

 Mulliken atomic charges:
              1
     1  C   -0.279033
     2  N   -0.782769
     3  C    0.826231
     4  O   -0.636519
     5  C    0.102950
     6  C   -0.476250
     7  C   -0.333408
     8  C   -0.304340
     9  C   -0.384097
    10  C   -0.185600
    11  C   -0.179407
    12  C   -0.319915
    13  C   -0.371136
    14  C   -0.403865
    15  C    0.128952
    16  C   -0.509753
    17  N   -0.787973
    18  C    0.767167
    19  C   -0.595640
    20  O   -0.613069
    21  C    0.788727
    22  O   -0.639585
    23  N   -0.794713
    24  C   -0.289851
    25  N   -0.843309
    26  C    0.744528
    27  C   -0.588704
    28  O   -0.593034
    29  H    0.186924
    30  H    0.194831
    31  H    0.163963
    32  H    0.392364
    33  H    0.195715
    34  H    0.146872
    35  H    0.211684
    36  H    0.160502
    37  H    0.180526
    38  H    0.165166
    39  H    0.188975
    40  H    0.205262
    41  H    0.153702
    42  H    0.182546
    43  H    0.172733
    44  H    0.177466
    45  H    0.163391
    46  H    0.163069
    47  H    0.220047
    48  H    0.186325
    49  H    0.243313
    50  H    0.183827
    51  H    0.156303
    52  H    0.226532
    53  H    0.388924
    54  H    0.211103
    55  H    0.207822
    56  H    0.176283
    57  H    0.403725
    58  H    0.189454
    59  H    0.186110
    60  H    0.186829
    61  H    0.383465
    62  H    0.218362
    63  H    0.177628
    64  H    0.201672
 Sum of Mulliken atomic charges =   0.00000

 Dipole moment (field-independent basis, Debye):
    X=              3.2729    Y=              6.1120    Z=             -2.7648  Tot=              7.4641
 Quadrupole moment (field-independent basis, Debye-Ang):
   XX=           -158.3540   YY=           -175.8795   ZZ=           -169.6521
   XY=             -1.5054   XZ=            -14.1082   YZ=              4.0519

 Normal termination of Gaussian 09 at Thu Dec  5 18:57:52 2019.
