 Gaussian 09, Revision A.02,
 Gaussian 09:  EM64L-G09RevA.02 11-Jun-2009

 ---------------------------------
 #SP HF/6-31G* Geom=(ModRedundant)
 ---------------------------------

 ------------
 paramfit run
 ------------
 Symbolic Z-matrix:
 Charge =  0 Multiplicity = 1

                         Standard orientation:
 ---------------------------------------------------------------------
 Center     Atomic      Atomic             Coordinates (Angstroms)
 Number     Number       Type             X           Y           Z
 ---------------------------------------------------------------------
      1          6    20001001       -4.966024    2.728299   -1.199550
      2          7    20001014       -4.648189    1.564046   -0.399087
      3          6    20001002       -4.903611    0.324562   -0.879241
      4          8    20001024       -5.176818    0.121872   -2.029902
      5          6    90000001       -4.692000   -0.844737    0.099200
      6          6    90000002       -5.442338   -2.080594   -0.408237
      7          6    90000002       -3.175229   -1.131058    0.269578
      8          6    90000002       -2.348493   -1.536777   -0.963928
      9          6    90000002       -1.835254   -0.410430   -1.882930
     10          6    20001004       -0.988534    0.621893   -1.176070
     11          6    20001004        0.332205    0.692054   -1.137548
     12          6    90000002        1.320783   -0.244013   -1.790421
     13          6    90000002        2.781382   -0.026812   -1.355633
     14          6    90000002        2.989824   -0.242952    0.149275
     15          6    90000002        4.442233   -0.230774    0.692420
     16          6    90000002        4.369328   -0.404784    2.218151
     17          7    20001014        5.164692   -1.353491    0.110107
     18          6    20001002        6.507756   -1.510803    0.295824
     19          6    20001001        7.174525   -2.475629   -0.657766
     20          8    20001024        7.119508   -0.930870    1.149393
     21          6    20001002        5.127746    1.076297    0.233765
     22          8    20001024        5.619602    1.151043   -0.860044
     23          7    20001014        5.056888    2.140109    1.062778
     24          6    20001001        5.721201    3.380037    0.717134
     25          7    20001014       -5.154969   -0.477149    1.445294
     26          6    20001002       -6.439276   -0.119781    1.732551
     27          6    20001001       -6.794403   -0.126277    3.204951
     28          8    20001024       -7.229032    0.189426    0.885901
     29          1    20001035       -6.034529    2.838149   -1.345082
     30          1    20001035       -4.494531    2.645269   -2.167809
     31          1    20001035       -4.582778    3.607885   -0.697749
     32          1    20001029       -4.666356    1.670558    0.588137
     33          1    20001034       -5.126350   -2.347855   -1.405059
     34          1    20001034       -5.254769   -2.916357    0.259262
     35          1    20001034       -6.504815   -1.888359   -0.441641
     36          1    20001034       -3.110062   -1.950450    0.982018
     37          1    20001034       -2.714865   -0.273308    0.749796
     38          1    20001034       -1.481047   -2.072640   -0.589754
     39          1    20001034       -2.904874   -2.247612   -1.566030
     40          1    20001034       -2.668659    0.084760   -2.364164
     41          1    20001034       -1.266746   -0.880084   -2.677950
     42          1    20001033       -1.539405    1.385001   -0.650407
     43          1    20001033        0.766548    1.508859   -0.582627
     44          1    20001034        1.270595   -0.151431   -2.868557
     45          1    20001034        1.031023   -1.268567   -1.560376
     46          1    20001034        3.402573   -0.705715   -1.933203
     47          1    20001034        3.092602    0.971378   -1.634182
     48          1    20001034        2.558726   -1.198581    0.439895
     49          1    20001034        2.441914    0.521262    0.687905
     50          1    20001034        3.970046   -1.388399    2.436455
     51          1    20001034        3.700980    0.323714    2.665346
     52          1    20001034        5.344430   -0.328019    2.675339
     53          1    20001029        4.828396   -1.662739   -0.773059
     54          1    20001034        8.102359   -2.816480   -0.224169
     55          1    20001034        7.394294   -1.951296   -1.582915
     56          1    20001034        6.541337   -3.325730   -0.887511
     57          1    20001029        4.867488    1.978761    2.023718
     58          1    20001035        5.444601    4.134005    1.442355
     59          1    20001035        5.404923    3.702131   -0.264116
     60          1    20001035        6.800852    3.270203    0.710486
     61          1    20001029       -4.619051   -0.845771    2.199255
     62          1    20001034       -7.648483    0.516514    3.360965
     63          1    20001034       -5.970207    0.203334    3.827533
     64          1    20001034       -7.062124   -1.135094    3.502297
 ---------------------------------------------------------------------

 SCF Done:  E(RHF) =  -1295.62040033     A.U. after   14 cycles

 The electronic state is 1-A.
 Alpha  occ. eigenvalues --  -20.53722 -20.52285 -20.51935 -20.51917 -15.59691
 Alpha  occ. eigenvalues --  -15.58279 -15.57779 -15.57585 -11.36041 -11.34487
 Alpha  occ. eigenvalues --  -11.34015 -11.33931 -11.29117 -11.28858 -11.25379
 Alpha  occ. eigenvalues --  -11.24913 -11.24428 -11.24114 -11.23684 -11.22840
 Alpha  occ. eigenvalues --  -11.22706 -11.22646 -11.22580 -11.22222 -11.22102
 Alpha  occ. eigenvalues --  -11.21873 -11.21671 -11.20949  -1.40658  -1.39655
 Alpha  occ. eigenvalues --   -1.38775  -1.38385  -1.25512  -1.23813  -1.22985
 Alpha  occ. eigenvalues --   -1.22133  -1.10831  -1.09455  -1.07321  -1.04429
 Alpha  occ. eigenvalues --   -1.01384  -0.99436  -0.98943  -0.95560  -0.95386
 Alpha  occ. eigenvalues --   -0.94814  -0.92313  -0.87286  -0.85910  -0.82815
 Alpha  occ. eigenvalues --   -0.81479  -0.79795  -0.78963  -0.77240  -0.77203
 Alpha  occ. eigenvalues --   -0.72379  -0.71635  -0.71248  -0.69079  -0.68118
 Alpha  occ. eigenvalues --   -0.66002  -0.65672  -0.65101  -0.64271  -0.64065
 Alpha  occ. eigenvalues --   -0.62658  -0.62331  -0.61819  -0.61625  -0.61451
 Alpha  occ. eigenvalues --   -0.60873  -0.60018  -0.59844  -0.58878  -0.58452
 Alpha  occ. eigenvalues --   -0.58361  -0.57819  -0.57091  -0.56528  -0.56247
 Alpha  occ. eigenvalues --   -0.55756  -0.55443  -0.55068  -0.54671  -0.54502
 Alpha  occ. eigenvalues --   -0.53537  -0.52860  -0.52756  -0.51994  -0.51537
 Alpha  occ. eigenvalues --   -0.51111  -0.50198  -0.50135  -0.49316  -0.48648
 Alpha  occ. eigenvalues --   -0.48502  -0.47020  -0.46605  -0.44736  -0.42944
 Alpha  occ. eigenvalues --   -0.42022  -0.41785  -0.41308  -0.39361  -0.39156
 Alpha  occ. eigenvalues --   -0.38602  -0.38370  -0.34371
 Alpha virt. eigenvalues --    0.17338   0.18726   0.19347   0.19908   0.20141
 Alpha virt. eigenvalues --    0.21032   0.21379   0.22671   0.23174   0.23780
 Alpha virt. eigenvalues --    0.25267   0.25591   0.25925   0.26602   0.27668

 Mulliken atomic charges:
              1
     1  C   -0.279831
     2  N   -0.783206
     3  C    0.822019
     4  O   -0.628477
     5  C    0.102335
     6  C   -0.472727
     7  C   -0.333812
     8  C   -0.311678
     9  C   -0.372510
    10  C   -0.185169
    11  C   -0.180566
    12  C   -0.337390
    13  C   -0.332270
    14  C   -0.323172
    15  C    0.091029
    16  C   -0.509181
    17  N   -0.787544
    18  C    0.767029
    19  C   -0.595761
    20  O   -0.613952
    21  C    0.819502
    22  O   -0.638583
    23  N   -0.807185
    24  C   -0.275534
    25  N   -0.843048
    26  C    0.744576
    27  C   -0.588674
    28  O   -0.591560
    29  H    0.186856
    30  H    0.198656
    31  H    0.162939
    32  H    0.391229
    33  H    0.198551
    34  H    0.143984
    35  H    0.212765
    36  H    0.160832
    37  H    0.182112
    38  H    0.162643
    39  H    0.179543
    40  H    0.213114
    41  H    0.172738
    42  H    0.180589
    43  H    0.170997
    44  H    0.184940
    45  H    0.162686
    46  H    0.157243
    47  H    0.194699
    48  H    0.176489
    49  H    0.180652
    50  H    0.183956
    51  H    0.147387
    52  H    0.226910
    53  H    0.390118
    54  H    0.211566
    55  H    0.209721
    56  H    0.176884
    57  H    0.395578
    58  H    0.164745
    59  H    0.198154
    60  H    0.186338
    61  H    0.382412
    62  H    0.218876
    63  H    0.177060
    64  H    0.201377
 Sum of Mulliken atomic charges =   0.00000

 Dipole moment (field-independent basis, Debye):
    X=             -0.4080    Y=             -0.7690    Z=              5.6755  Tot=              5.7419
 Quadrupole moment (field-independent basis, Debye-Ang):
   XX=           -237.1227   YY=           -154.5358   ZZ=           -167.0398
   XY=             -1.3297   XZ=            -30.4080   YZ=              8.0322

 Normal termination of Gaussian 09 at Thu Dec  5 18:12:19 2019.
