 Gaussian 09, Revision A.02,
 Gaussian 09:  EM64L-G09RevA.02 11-Jun-2009

 ---------------------------------
 #SP HF/6-31G* Geom=(ModRedundant)
 ---------------------------------

 ------------
 paramfit run
 ------------
 Symbolic Z-matrix:
 Charge =  0 Multiplicity = 1

                         Standard orientation:
 ---------------------------------------------------------------------
 Center     Atomic      Atomic             Coordinates (Angstroms)
 Number     Number       Type             X           Y           Z
 ---------------------------------------------------------------------
      1          6    20001001       -3.414722    2.360412    1.739059
      2          7    20001014       -3.811286    1.094380    1.158416
      3          6    20001002       -3.798581    0.934688   -0.185625
      4          8    20001024       -3.262612    1.714771   -0.923156
      5          6    90000001       -4.392208   -0.379666   -0.723648
      6          6    90000002       -4.730640   -0.219513   -2.209466
      7          6    90000002       -3.398374   -1.549869   -0.490148
      8          6    90000002       -2.005229   -1.488027   -1.142035
      9          6    90000002       -0.913603   -0.672824   -0.420624
     10          6    20001004       -0.653236   -1.116057    0.999951
     11          6    20001004        0.313697   -1.908830    1.432743
     12          6    90000002        1.396565   -2.568132    0.612700
     13          6    90000002        2.450439   -1.594580    0.054927
     14          6    90000002        3.210928   -0.848442    1.159394
     15          6    90000002        4.420033    0.029785    0.745355
     16          6    90000002        4.958737    0.707638    2.015695
     17          7    20001014        5.449303   -0.833535    0.182490
     18          6    20001002        6.571304   -0.319162   -0.400253
     19          6    20001001        7.345223   -1.291018   -1.261268
     20          8    20001024        6.923143    0.817195   -0.245191
     21          6    20001002        3.959411    1.013959   -0.353715
     22          8    20001024        3.920262    0.664185   -1.502651
     23          7    20001014        3.513350    2.225402    0.043043
     24          6    20001001        3.114816    3.213498   -0.938303
     25          7    20001014       -5.591492   -0.751566    0.041099
     26          6    20001002       -6.706942    0.028328    0.126010
     27          6    20001001       -7.943105   -0.672607    0.650138
     28          8    20001024       -6.710240    1.187220   -0.179110
     29          1    20001035       -4.106408    3.155171    1.484346
     30          1    20001035       -2.432146    2.633388    1.383038
     31          1    20001035       -3.379116    2.250881    2.815669
     32          1    20001029       -4.465817    0.545434    1.664907
     33          1    20001034       -3.862129    0.074677   -2.778741
     34          1    20001034       -5.106836   -1.161287   -2.597765
     35          1    20001034       -5.484213    0.542741   -2.343724
     36          1    20001034       -3.894069   -2.436964   -0.878181
     37          1    20001034       -3.292966   -1.703725    0.579197
     38          1    20001034       -1.653204   -2.513074   -1.212572
     39          1    20001034       -2.088572   -1.127440   -2.162037
     40          1    20001034       -1.173364    0.377836   -0.421546
     41          1    20001034       -0.008065   -0.757625   -1.011085
     42          1    20001033       -1.341294   -0.729669    1.734385
     43          1    20001033        0.346708   -2.113469    2.491419
     44          1    20001034        0.961543   -3.109613   -0.218575
     45          1    20001034        1.894644   -3.312949    1.232184
     46          1    20001034        3.133943   -2.167432   -0.565587
     47          1    20001034        1.968725   -0.887330   -0.607324
     48          1    20001034        3.583939   -1.564864    1.888185
     49          1    20001034        2.515030   -0.205045    1.684863
     50          1    20001034        5.349015   -0.056502    2.677778
     51          1    20001034        4.169335    1.227187    2.548886
     52          1    20001034        5.757406    1.398551    1.790962
     53          1    20001029        5.118792   -1.677720   -0.225954
     54          1    20001034        8.360664   -0.940035   -1.364956
     55          1    20001034        6.885842   -1.323617   -2.244646
     56          1    20001034        7.342733   -2.293900   -0.848223
     57          1    20001029        3.781455    2.557607    0.939185
     58          1    20001035        2.679502    4.058297   -0.420869
     59          1    20001035        2.377215    2.789750   -1.603893
     60          1    20001035        3.957061    3.553914   -1.532015
     61          1    20001029       -5.722011   -1.727881    0.187117
     62          1    20001034       -8.624847    0.068156    1.041891
     63          1    20001034       -7.708124   -1.397414    1.421493
     64          1    20001034       -8.430990   -1.193247   -0.167605
 ---------------------------------------------------------------------

 SCF Done:  E(RHF) =  -1295.61917796     A.U. after   14 cycles

 The electronic state is 1-A.
 Alpha  occ. eigenvalues --  -20.53642 -20.51895 -20.51862 -20.51391 -15.59595
 Alpha  occ. eigenvalues --  -15.57649 -15.57561 -15.57350 -11.35960 -11.34104
 Alpha  occ. eigenvalues --  -11.33872 -11.33467 -11.29008 -11.28343 -11.24965
 Alpha  occ. eigenvalues --  -11.24660 -11.24349 -11.23965 -11.23094 -11.22654
 Alpha  occ. eigenvalues --  -11.22531 -11.22403 -11.22239 -11.22161 -11.21947
 Alpha  occ. eigenvalues --  -11.21594 -11.21518 -11.20821  -1.40580  -1.39191
 Alpha  occ. eigenvalues --   -1.38719  -1.37910  -1.25423  -1.23369  -1.22364
 Alpha  occ. eigenvalues --   -1.22105  -1.10792  -1.09145  -1.07059  -1.04090
 Alpha  occ. eigenvalues --   -1.01108  -0.99279  -0.98604  -0.95556  -0.95061
 Alpha  occ. eigenvalues --   -0.94391  -0.92112  -0.87342  -0.85539  -0.82812
 Alpha  occ. eigenvalues --   -0.81194  -0.79281  -0.78659  -0.77200  -0.76660
 Alpha  occ. eigenvalues --   -0.71799  -0.71211  -0.71018  -0.68881  -0.67824
 Alpha  occ. eigenvalues --   -0.66928  -0.65839  -0.64369  -0.63842  -0.63431
 Alpha  occ. eigenvalues --   -0.62629  -0.62394  -0.61460  -0.61190  -0.61040
 Alpha  occ. eigenvalues --   -0.60662  -0.59877  -0.59343  -0.58643  -0.58332
 Alpha  occ. eigenvalues --   -0.58125  -0.57685  -0.56580  -0.56454  -0.56178
 Alpha  occ. eigenvalues --   -0.55410  -0.54682  -0.54615  -0.54584  -0.54017
 Alpha  occ. eigenvalues --   -0.53009  -0.52806  -0.52405  -0.51858  -0.51451
 Alpha  occ. eigenvalues --   -0.51028  -0.50384  -0.49726  -0.49342  -0.48354
 Alpha  occ. eigenvalues --   -0.48044  -0.46787  -0.46031  -0.44538  -0.42853
 Alpha  occ. eigenvalues --   -0.41934  -0.41310  -0.40902  -0.39287  -0.38638
 Alpha  occ. eigenvalues --   -0.38344  -0.38049  -0.34435
 Alpha virt. eigenvalues --    0.17098   0.18810   0.19812   0.19998   0.20274
 Alpha virt. eigenvalues --    0.21703   0.21852   0.23108   0.23456   0.23954
 Alpha virt. eigenvalues --    0.25201   0.25701   0.26832   0.27240   0.27550

 Mulliken atomic charges:
              1
     1  C   -0.279294
     2  N   -0.783339
     3  C    0.821956
     4  O   -0.628375
     5  C    0.102261
     6  C   -0.472871
     7  C   -0.334664
     8  C   -0.311037
     9  C   -0.377777
    10  C   -0.173395
    11  C   -0.194193
    12  C   -0.347602
    13  C   -0.318486
    14  C   -0.323698
    15  C    0.089759
    16  C   -0.509454
    17  N   -0.787315
    18  C    0.767366
    19  C   -0.595641
    20  O   -0.613799
    21  C    0.821313
    22  O   -0.641259
    23  N   -0.805439
    24  C   -0.276016
    25  N   -0.843133
    26  C    0.744573
    27  C   -0.588676
    28  O   -0.591938
    29  H    0.187050
    30  H    0.196930
    31  H    0.162371
    32  H    0.391517
    33  H    0.199416
    34  H    0.144286
    35  H    0.212332
    36  H    0.161480
    37  H    0.181970
    38  H    0.164576
    39  H    0.181151
    40  H    0.212296
    41  H    0.179190
    42  H    0.180765
    43  H    0.172669
    44  H    0.178515
    45  H    0.160853
    46  H    0.149355
    47  H    0.202767
    48  H    0.171089
    49  H    0.189521
    50  H    0.182976
    51  H    0.149241
    52  H    0.226081
    53  H    0.389398
    54  H    0.210918
    55  H    0.209062
    56  H    0.175935
    57  H    0.395222
    58  H    0.166071
    59  H    0.201408
    60  H    0.183837
    61  H    0.382712
    62  H    0.218527
    63  H    0.177222
    64  H    0.201461
 Sum of Mulliken atomic charges =   0.00000

 Dipole moment (field-independent basis, Debye):
    X=             -3.4848    Y=             -6.1465    Z=              4.7464  Tot=              8.5118
 Quadrupole moment (field-independent basis, Debye-Ang):
   XX=           -176.2682   YY=           -164.3005   ZZ=           -169.7180
   XY=             13.3714   XZ=             -5.8630   YZ=             10.5766

 Normal termination of Gaussian 09 at Thu Dec  5 18:19:56 2019.
