 Gaussian 09, Revision A.02,
 Gaussian 09:  EM64L-G09RevA.02 11-Jun-2009

 ---------------------------------
 #SP HF/6-31G* Geom=(ModRedundant)
 ---------------------------------

 ------------
 paramfit run
 ------------
 Symbolic Z-matrix:
 Charge =  0 Multiplicity = 1

                         Standard orientation:
 ---------------------------------------------------------------------
 Center     Atomic      Atomic             Coordinates (Angstroms)
 Number     Number       Type             X           Y           Z
 ---------------------------------------------------------------------
      1          6    20001001       -4.310992    2.983418   -0.450301
      2          7    20001014       -4.439937    1.622685    0.028266
      3          6    20001002       -4.769612    0.632417   -0.833588
      4          8    20001024       -4.745676    0.778658   -2.024297
      5          6    90000001       -5.048968   -0.748589   -0.213776
      6          6    90000002       -5.837807   -1.607143   -1.207989
      7          6    90000002       -3.714869   -1.431396    0.193111
      8          6    90000002       -2.665580   -1.727631   -0.893569
      9          6    90000002       -1.725838   -0.579494   -1.312263
     10          6    20001004       -0.937442    0.017187   -0.170037
     11          6    20001004        0.311617   -0.251190    0.174322
     12          6    90000002        1.258566   -1.222079   -0.489316
     13          6    90000002        2.708949   -0.718107   -0.598720
     14          6    90000002        3.345006   -0.442157    0.770293
     15          6    90000002        4.856855   -0.100191    0.815221
     16          6    90000002        5.224427    0.189847    2.279536
     17          7    20001014        5.608163   -1.256590    0.346386
     18          6    20001002        6.956241   -1.195889    0.141302
     19          6    20001001        7.525866   -2.321933   -0.690778
     20          8    20001024        7.643622   -0.318500    0.584965
     21          6    20001002        5.124026    1.075303   -0.152021
     22          8    20001024        5.285435    0.870201   -1.324971
     23          7    20001014        5.064545    2.325146    0.356246
     24          6    20001001        5.354785    3.468996   -0.483735
     25          7    20001014       -5.792680   -0.604195    1.046174
     26          6    20001002       -7.021095   -0.019043    1.137093
     27          6    20001001       -7.764652   -0.282609    2.430065
     28          8    20001024       -7.477626    0.664631    0.265136
     29          1    20001035       -5.260154    3.384022   -0.787284
     30          1    20001035       -3.612899    3.016021   -1.273906
     31          1    20001035       -3.930830    3.598662    0.355493
     32          1    20001029       -4.711004    1.496055    0.975247
     33          1    20001034       -5.311542   -1.702802   -2.145447
     34          1    20001034       -5.994378   -2.595711   -0.786734
     35          1    20001034       -6.797571   -1.156813   -1.415315
     36          1    20001034       -3.996527   -2.384945    0.634284
     37          1    20001034       -3.259814   -0.850626    0.989296
     38          1    20001034       -2.045521   -2.532915   -0.510603
     39          1    20001034       -3.151389   -2.118030   -1.781798
     40          1    20001034       -2.291414    0.204234   -1.799354
     41          1    20001034       -1.053026   -0.974972   -2.065094
     42          1    20001033       -1.466759    0.747399    0.420493
     43          1    20001033        0.714142    0.279982    1.022609
     44          1    20001034        0.908832   -1.467368   -1.484798
     45          1    20001034        1.248776   -2.154549    0.073710
     46          1    20001034        3.277893   -1.464766   -1.145690
     47          1    20001034        2.731450    0.177152   -1.206038
     48          1    20001034        3.204068   -1.307161    1.414836
     49          1    20001034        2.818069    0.381747    1.237059
     50          1    20001034        5.100027   -0.719947    2.855193
     51          1    20001034        4.566786    0.938485    2.708990
     52          1    20001034        6.250210    0.512398    2.376848
     53          1    20001029        5.119360   -1.855478   -0.279007
     54          1    20001034        8.583623   -2.406998   -0.493355
     55          1    20001034        7.385676   -2.081577   -1.740397
     56          1    20001034        7.036143   -3.268053   -0.487284
     57          1    20001029        5.170855    2.442497    1.336163
     58          1    20001035        5.135172    4.370769    0.072591
     59          1    20001035        4.733851    3.439880   -1.367035
     60          1    20001035        6.394094    3.486201   -0.795659
     61          1    20001029       -5.560831   -1.259504    1.759170
     62          1    20001034       -8.499577    0.495736    2.575105
     63          1    20001034       -7.099643   -0.321500    3.285519
     64          1    20001034       -8.279714   -1.235060    2.356922
 ---------------------------------------------------------------------

 SCF Done:  E(RHF) =  -1295.62033839     A.U. after   14 cycles

 The electronic state is 1-A.
 Alpha  occ. eigenvalues --  -20.53667 -20.52177 -20.51854 -20.51766 -15.59628
 Alpha  occ. eigenvalues --  -15.58097 -15.57669 -15.57535 -11.35987 -11.34383
 Alpha  occ. eigenvalues --  -11.33868 -11.33855 -11.29044 -11.28748 -11.25179
 Alpha  occ. eigenvalues --  -11.24881 -11.24380 -11.24021 -11.23615 -11.22714
 Alpha  occ. eigenvalues --  -11.22617 -11.22583 -11.22465 -11.22233 -11.21975
 Alpha  occ. eigenvalues --  -11.21942 -11.21579 -11.20878  -1.40603  -1.39518
 Alpha  occ. eigenvalues --   -1.38712  -1.38244  -1.25450  -1.23700  -1.22804
 Alpha  occ. eigenvalues --   -1.22082  -1.10782  -1.09368  -1.07260  -1.04328
 Alpha  occ. eigenvalues --   -1.01310  -0.99365  -0.98846  -0.95515  -0.95236
 Alpha  occ. eigenvalues --   -0.94689  -0.92266  -0.87235  -0.85842  -0.82849
 Alpha  occ. eigenvalues --   -0.81415  -0.79676  -0.78847  -0.77185  -0.77049
 Alpha  occ. eigenvalues --   -0.72148  -0.71471  -0.71172  -0.69021  -0.68073
 Alpha  occ. eigenvalues --   -0.66210  -0.65862  -0.64792  -0.64089  -0.63947
 Alpha  occ. eigenvalues --   -0.62591  -0.62223  -0.61846  -0.61574  -0.61368
 Alpha  occ. eigenvalues --   -0.60945  -0.59922  -0.59537  -0.58826  -0.58509
 Alpha  occ. eigenvalues --   -0.58321  -0.57892  -0.56712  -0.56465  -0.56231
 Alpha  occ. eigenvalues --   -0.55514  -0.55143  -0.54908  -0.54551  -0.54146
 Alpha  occ. eigenvalues --   -0.53332  -0.52827  -0.52684  -0.52073  -0.51567
 Alpha  occ. eigenvalues --   -0.51046  -0.50270  -0.49962  -0.49547  -0.48662
 Alpha  occ. eigenvalues --   -0.48412  -0.46963  -0.46291  -0.44475  -0.42879
 Alpha  occ. eigenvalues --   -0.41958  -0.41657  -0.41198  -0.39300  -0.39002
 Alpha  occ. eigenvalues --   -0.38454  -0.38318  -0.34466
 Alpha virt. eigenvalues --    0.17555   0.18779   0.19509   0.19964   0.20190
 Alpha virt. eigenvalues --    0.21388   0.21849   0.22778   0.23398   0.24062
 Alpha virt. eigenvalues --    0.25182   0.25769   0.26369   0.26526   0.27753

 Mulliken atomic charges:
              1
     1  C   -0.279757
     2  N   -0.783328
     3  C    0.822124
     4  O   -0.628342
     5  C    0.102404
     6  C   -0.472720
     7  C   -0.334218
     8  C   -0.310843
     9  C   -0.372367
    10  C   -0.185997
    11  C   -0.170750
    12  C   -0.349256
    13  C   -0.320926
    14  C   -0.332186
    15  C    0.093451
    16  C   -0.509469
    17  N   -0.788224
    18  C    0.767291
    19  C   -0.595702
    20  O   -0.613882
    21  C    0.820387
    22  O   -0.638674
    23  N   -0.806658
    24  C   -0.275592
    25  N   -0.843059
    26  C    0.744566
    27  C   -0.588669
    28  O   -0.591687
    29  H    0.186856
    30  H    0.198762
    31  H    0.162396
    32  H    0.391196
    33  H    0.198711
    34  H    0.143978
    35  H    0.212550
    36  H    0.161033
    37  H    0.182004
    38  H    0.163964
    39  H    0.179242
    40  H    0.212104
    41  H    0.172882
    42  H    0.180493
    43  H    0.170872
    44  H    0.180004
    45  H    0.162542
    46  H    0.155277
    47  H    0.199594
    48  H    0.176149
    49  H    0.180416
    50  H    0.184034
    51  H    0.147666
    52  H    0.227027
    53  H    0.389940
    54  H    0.211430
    55  H    0.209728
    56  H    0.176555
    57  H    0.395422
    58  H    0.164818
    59  H    0.199129
    60  H    0.185674
    61  H    0.382503
    62  H    0.218690
    63  H    0.177121
    64  H    0.201322
 Sum of Mulliken atomic charges =   0.00000

 Dipole moment (field-independent basis, Debye):
    X=             -1.7019    Y=             -2.7612    Z=              6.7757  Tot=              7.5121
 Quadrupole moment (field-independent basis, Debye-Ang):
   XX=           -217.2852   YY=           -151.7617   ZZ=           -172.9230
   XY=              9.8768   XZ=            -27.3881   YZ=              8.0528

 Normal termination of Gaussian 09 at Thu Dec  5 18:57:52 2019.
