 Gaussian 09, Revision A.02,
 Gaussian 09:  EM64L-G09RevA.02 11-Jun-2009

 ---------------------------------
 #SP HF/6-31G* Geom=(ModRedundant)
 ---------------------------------

 ------------
 paramfit run
 ------------
 Symbolic Z-matrix:
 Charge =  0 Multiplicity = 1

                         Standard orientation:
 ---------------------------------------------------------------------
 Center     Atomic      Atomic             Coordinates (Angstroms)
 Number     Number       Type             X           Y           Z
 ---------------------------------------------------------------------
      1          6    20001001       -5.007339    2.462926   -0.008210
      2          7    20001014       -4.163785    1.309392    0.226358
      3          6    20001002       -3.565226    0.687636   -0.816357
      4          8    20001024       -3.513138    1.171911   -1.912948
      5          6    90000001       -2.825662   -0.624075   -0.497227
      6          6    90000002       -2.617892   -1.423101   -1.788053
      7          6    90000002       -1.474991   -0.318572    0.205594
      8          6    90000002       -0.419677    0.520845   -0.536921
      9          6    90000002       -0.566943    2.054850   -0.494728
     10          6    20001004       -0.602537    2.630837    0.901427
     11          6    20001004        0.397104    3.178648    1.573274
     12          6    90000002        1.822479    3.362786    1.110510
     13          6    90000002        2.624534    2.054193    0.992796
     14          6    90000002        2.018085    1.077098   -0.023284
     15          6    90000002        2.821030   -0.203065   -0.371289
     16          6    90000002        1.974353   -1.030453   -1.352112
     17          7    20001014        4.065345    0.191181   -1.017651
     18          6    20001002        5.039216   -0.720638   -1.306123
     19          6    20001001        6.395524   -0.128852   -1.614383
     20          8    20001024        4.841153   -1.903771   -1.316518
     21          6    20001002        3.169811   -0.937242    0.943269
     22          8    20001024        4.128858   -0.605277    1.586663
     23          7    20001014        2.305199   -1.879219    1.378134
     24          6    20001001        2.597034   -2.640491    2.575422
     25          7    20001014       -3.584464   -1.415289    0.482381
     26          6    20001002       -4.852053   -1.870489    0.268646
     27          6    20001001       -5.318487   -2.947289    1.226279
     28          8    20001024       -5.553576   -1.443806   -0.604249
     29          1    20001035       -5.900773    2.202796   -0.564140
     30          1    20001035       -4.460000    3.207701   -0.567185
     31          1    20001035       -5.292731    2.882661    0.948203
     32          1    20001029       -4.368391    0.748614    1.020052
     33          1    20001034       -2.080205   -0.844581   -2.523674
     34          1    20001034       -2.056422   -2.326062   -1.567484
     35          1    20001034       -3.570078   -1.696990   -2.218463
     36          1    20001034       -1.026033   -1.287779    0.411250
     37          1    20001034       -1.683488    0.130988    1.171361
     38          1    20001034        0.539222    0.273240   -0.091028
     39          1    20001034       -0.359247    0.207803   -1.574093
     40          1    20001034       -1.460873    2.356675   -1.024967
     41          1    20001034        0.265645    2.471715   -1.050475
     42          1    20001033       -1.561623    2.586371    1.391620
     43          1    20001033        0.182828    3.543398    2.565648
     44          1    20001034        2.353105    4.026441    1.782421
     45          1    20001034        1.810092    3.859438    0.141089
     46          1    20001034        3.643029    2.314371    0.718294
     47          1    20001034        2.688934    1.585619    1.965998
     48          1    20001034        1.841460    1.596575   -0.962689
     49          1    20001034        1.049149    0.756222    0.340794
     50          1    20001034        1.871418   -0.474006   -2.276424
     51          1    20001034        0.976034   -1.200889   -0.962632
     52          1    20001034        2.439439   -1.977966   -1.579386
     53          1    20001029        4.401205    1.095464   -0.776439
     54          1    20001034        6.974891   -0.846403   -2.175200
     55          1    20001034        6.905309    0.074377   -0.677398
     56          1    20001034        6.319209    0.798655   -2.171420
     57          1    20001029        1.679405   -2.284951    0.723097
     58          1    20001035        1.734877   -3.248046    2.817253
     59          1    20001035        2.795209   -1.967306    3.396504
     60          1    20001035        3.461132   -3.283594    2.443112
     61          1    20001029       -3.036727   -1.923847    1.140331
     62          1    20001034       -6.398609   -2.958600    1.239709
     63          1    20001034       -4.941964   -2.793997    2.231407
     64          1    20001034       -4.967028   -3.912340    0.875629
 ---------------------------------------------------------------------

 SCF Done:  E(RHF) =  -1295.46107234     A.U. after   14 cycles

 The electronic state is 1-A.
 Alpha  occ. eigenvalues --  -20.53850 -20.52252 -20.52207 -20.52086 -15.59827
 Alpha  occ. eigenvalues --  -15.58829 -15.57748 -15.57716 -11.36158 -11.34445
 Alpha  occ. eigenvalues --  -11.34300 -11.34100 -11.29236 -11.28907 -11.25906
 Alpha  occ. eigenvalues --  -11.25060 -11.24534 -11.24439 -11.22657 -11.22625
 Alpha  occ. eigenvalues --  -11.22540 -11.22301 -11.22296 -11.22023 -11.21958
 Alpha  occ. eigenvalues --  -11.21793 -11.21231 -11.21170  -1.40787  -1.39791
 Alpha  occ. eigenvalues --   -1.38938  -1.38496  -1.25664  -1.23887  -1.23439
 Alpha  occ. eigenvalues --   -1.22292  -1.13525  -1.08974  -1.07780  -1.05041
 Alpha  occ. eigenvalues --   -1.01968  -1.00262  -0.98907  -0.96119  -0.95726
 Alpha  occ. eigenvalues --   -0.95484  -0.92082  -0.89576  -0.86487  -0.85066
 Alpha  occ. eigenvalues --   -0.81660  -0.80418  -0.78251  -0.77522  -0.77394
 Alpha  occ. eigenvalues --   -0.73057  -0.71859  -0.71343  -0.69672  -0.69157
 Alpha  occ. eigenvalues --   -0.67724  -0.66057  -0.65704  -0.64705  -0.64042
 Alpha  occ. eigenvalues --   -0.63314  -0.63105  -0.62683  -0.61821  -0.61603
 Alpha  occ. eigenvalues --   -0.61481  -0.61012  -0.59663  -0.59479  -0.59061
 Alpha  occ. eigenvalues --   -0.58381  -0.57972  -0.57296  -0.56488  -0.56423
 Alpha  occ. eigenvalues --   -0.56009  -0.55507  -0.55307  -0.54934  -0.54705
 Alpha  occ. eigenvalues --   -0.53545  -0.53272  -0.52587  -0.52256  -0.51622
 Alpha  occ. eigenvalues --   -0.51198  -0.50346  -0.50175  -0.49860  -0.49586
 Alpha  occ. eigenvalues --   -0.47779  -0.46647  -0.44730  -0.43088  -0.42858
 Alpha  occ. eigenvalues --   -0.41855  -0.41500  -0.39633  -0.39519  -0.38878
 Alpha  occ. eigenvalues --   -0.38609  -0.37940  -0.34660
 Alpha virt. eigenvalues --    0.17099   0.18001   0.18681   0.19326   0.19697
 Alpha virt. eigenvalues --    0.21200   0.21658   0.22596   0.22765   0.23706
 Alpha virt. eigenvalues --    0.25173   0.25551   0.26412   0.26486   0.27076

 Mulliken atomic charges:
              1
     1  C   -0.280047
     2  N   -0.783872
     3  C    0.823091
     4  O   -0.629250
     5  C    0.108424
     6  C   -0.473401
     7  C   -0.322501
     8  C   -0.355762
     9  C   -0.400293
    10  C   -0.180848
    11  C   -0.181988
    12  C   -0.352956
    13  C   -0.291597
    14  C   -0.395518
    15  C    0.109000
    16  C   -0.532118
    17  N   -0.793056
    18  C    0.768162
    19  C   -0.595597
    20  O   -0.615728
    21  C    0.830025
    22  O   -0.638308
    23  N   -0.815215
    24  C   -0.274625
    25  N   -0.843771
    26  C    0.744656
    27  C   -0.588961
    28  O   -0.591396
    29  H    0.187420
    30  H    0.197856
    31  H    0.163644
    32  H    0.391691
    33  H    0.199221
    34  H    0.140556
    35  H    0.214405
    36  H    0.146007
    37  H    0.185511
    38  H    0.150074
    39  H    0.195707
    40  H    0.228968
    41  H    0.178935
    42  H    0.185522
    43  H    0.177500
    44  H    0.177092
    45  H    0.169665
    46  H    0.146880
    47  H    0.188274
    48  H    0.189536
    49  H    0.240399
    50  H    0.191119
    51  H    0.163673
    52  H    0.230003
    53  H    0.391659
    54  H    0.211589
    55  H    0.208836
    56  H    0.177958
    57  H    0.395940
    58  H    0.160258
    59  H    0.199469
    60  H    0.189095
    61  H    0.381180
    62  H    0.219481
    63  H    0.177227
    64  H    0.201102
 Sum of Mulliken atomic charges =   0.00000

 Dipole moment (field-independent basis, Debye):
    X=             -0.8528    Y=             -0.4769    Z=              4.6299  Tot=              4.7319
 Quadrupole moment (field-independent basis, Debye-Ang):
   XX=           -195.0815   YY=           -163.6183   ZZ=           -177.1355
   XY=             20.4776   XZ=            -29.7814   YZ=             -6.9199

 Normal termination of Gaussian 09 at Thu Dec  5 19:15:29 2019.
