 Gaussian 09, Revision A.02,
 Gaussian 09:  EM64L-G09RevA.02 11-Jun-2009

 ---------------------------------
 #SP HF/6-31G* Geom=(ModRedundant)
 ---------------------------------

 ------------
 paramfit run
 ------------
 Symbolic Z-matrix:
 Charge =  0 Multiplicity = 1

                         Standard orientation:
 ---------------------------------------------------------------------
 Center     Atomic      Atomic             Coordinates (Angstroms)
 Number     Number       Type             X           Y           Z
 ---------------------------------------------------------------------
      1          6    20001001       -4.727097    2.854488   -1.019432
      2          7    20001014       -4.600097    1.608970   -0.291558
      3          6    20001002       -4.920040    0.439662   -0.893608
      4          8    20001024       -5.094525    0.349854   -2.077346
      5          6    90000001       -4.916521   -0.813206    0.000649
      6          6    90000002       -5.723701   -1.927340   -0.673894
      7          6    90000002       -3.457457   -1.261710    0.286268
      8          6    90000002       -2.552801   -1.657136   -0.894779
      9          6    90000002       -1.848150   -0.523846   -1.666632
     10          6    20001004       -0.984274    0.364118   -0.802042
     11          6    20001004        0.326798    0.298608   -0.636042
     12          6    90000002        1.284627   -0.681653   -1.269606
     13          6    90000002        2.771030   -0.340171   -1.060886
     14          6    90000002        3.171878   -0.320108    0.420273
     15          6    90000002        4.675668   -0.165330    0.765677
     16          6    90000002        4.797685   -0.112479    2.297268
     17          7    20001014        5.389646   -1.330736    0.262093
     18          6    20001002        6.752359   -1.401408    0.294917
     19          6    20001001        7.356863   -2.468645   -0.588478
     20          8    20001024        7.426042   -0.675076    0.971478
     21          6    20001002        5.220276    1.086491    0.041060
     22          8    20001024        5.571414    1.017860   -1.106076
     23          7    20001014        5.185227    2.258200    0.711770
     24          6    20001001        5.726514    3.459669    0.110370
     25          7    20001014       -5.475587   -0.500275    1.323884
     26          6    20001002       -6.743491   -0.037949    1.519704
     27          6    20001001       -7.243007   -0.116237    2.947455
     28          8    20001024       -7.412639    0.409766    0.632048
     29          1    20001035       -5.760914    3.081158   -1.253508
     30          1    20001035       -4.170964    2.795501   -1.943531
     31          1    20001035       -4.316041    3.652287   -0.413706
     32          1    20001029       -4.706853    1.644456    0.695169
     33          1    20001034       -5.335842   -2.151474   -1.655862
     34          1    20001034       -5.682025   -2.824150   -0.062966
     35          1    20001034       -6.755113   -1.627705   -0.789368
     36          1    20001034       -3.540014   -2.133291    0.931831
     37          1    20001034       -2.969870   -0.491730    0.875902
     38          1    20001034       -1.780492   -2.303073   -0.487445
     39          1    20001034       -3.109717   -2.262822   -1.602143
     40          1    20001034       -2.579810    0.086131   -2.180407
     41          1    20001034       -1.249045   -0.988835   -2.441675
     42          1    20001033       -1.511799    1.138183   -0.268511
     43          1    20001033        0.777350    1.025115    0.021948
     44          1    20001034        1.099475   -0.753328   -2.334522
     45          1    20001034        1.087467   -1.671728   -0.860372
     46          1    20001034        3.358267   -1.070733   -1.610256
     47          1    20001034        2.985216    0.617526   -1.516702
     48          1    20001034        2.837775   -1.239047    0.897202
     49          1    20001034        2.647380    0.492023    0.909859
     50          1    20001034        4.488102   -1.068512    2.703149
     51          1    20001034        4.145014    0.645605    2.717635
     52          1    20001034        5.814258    0.073011    2.610181
     53          1    20001029        4.968888   -1.782393   -0.517446
     54          1    20001034        8.349134   -2.701237   -0.233006
     55          1    20001034        7.431384   -2.079500   -1.599486
     56          1    20001034        6.753457   -3.369619   -0.611458
     57          1    20001029        5.123050    2.234272    1.702159
     58          1    20001035        5.493935    4.301058    0.749817
     59          1    20001035        5.275421    3.617900   -0.858188
     60          1    20001035        6.802176    3.395992   -0.018665
     61          1    20001029       -5.054155   -0.974753    2.091226
     62          1    20001034       -8.045134    0.595783    3.076269
     63          1    20001034       -6.458152    0.082839    3.668511
     64          1    20001034       -7.631432   -1.112147    3.134776
 ---------------------------------------------------------------------

 SCF Done:  E(RHF) =  -1295.61951783     A.U. after   14 cycles

 The electronic state is 1-A.
 Alpha  occ. eigenvalues --  -20.53694 -20.52256 -20.51887 -20.51882 -15.59659
 Alpha  occ. eigenvalues --  -15.58226 -15.57753 -15.57555 -11.36014 -11.34460
 Alpha  occ. eigenvalues --  -11.33971 -11.33897 -11.29079 -11.28839 -11.25314
 Alpha  occ. eigenvalues --  -11.24890 -11.24404 -11.24065 -11.23696 -11.22783
 Alpha  occ. eigenvalues --  -11.22682 -11.22618 -11.22561 -11.22194 -11.22065
 Alpha  occ. eigenvalues --  -11.21839 -11.21621 -11.20915  -1.40630  -1.39617
 Alpha  occ. eigenvalues --   -1.38740  -1.38346  -1.25480  -1.23787  -1.22932
 Alpha  occ. eigenvalues --   -1.22103  -1.10802  -1.09433  -1.07291  -1.04400
 Alpha  occ. eigenvalues --   -1.01354  -0.99406  -0.98912  -0.95533  -0.95334
 Alpha  occ. eigenvalues --   -0.94769  -0.92290  -0.87254  -0.85894  -0.82828
 Alpha  occ. eigenvalues --   -0.81449  -0.79772  -0.78912  -0.77209  -0.77160
 Alpha  occ. eigenvalues --   -0.72332  -0.71596  -0.71215  -0.69057  -0.68101
 Alpha  occ. eigenvalues --   -0.65959  -0.65639  -0.65097  -0.64201  -0.64058
 Alpha  occ. eigenvalues --   -0.62624  -0.62266  -0.61781  -0.61645  -0.61457
 Alpha  occ. eigenvalues --   -0.60920  -0.59980  -0.59739  -0.58867  -0.58491
 Alpha  occ. eigenvalues --   -0.58345  -0.57854  -0.56937  -0.56501  -0.56262
 Alpha  occ. eigenvalues --   -0.55548  -0.55406  -0.55018  -0.54613  -0.54419
 Alpha  occ. eigenvalues --   -0.53498  -0.52837  -0.52751  -0.52020  -0.51534
 Alpha  occ. eigenvalues --   -0.51077  -0.50206  -0.50139  -0.49413  -0.48682
 Alpha  occ. eigenvalues --   -0.48467  -0.46960  -0.46443  -0.44603  -0.42911
 Alpha  occ. eigenvalues --   -0.41989  -0.41750  -0.41279  -0.39328  -0.39111
 Alpha  occ. eigenvalues --   -0.38560  -0.38339  -0.34352
 Alpha virt. eigenvalues --    0.17356   0.18752   0.19403   0.19933   0.20163
 Alpha virt. eigenvalues --    0.21178   0.21493   0.22658   0.23225   0.23873
 Alpha virt. eigenvalues --    0.25165   0.25629   0.26087   0.26513   0.27706

 Mulliken atomic charges:
              1
     1  C   -0.279787
     2  N   -0.783217
     3  C    0.822094
     4  O   -0.628461
     5  C    0.102337
     6  C   -0.472714
     7  C   -0.333956
     8  C   -0.311397
     9  C   -0.371772
    10  C   -0.185065
    11  C   -0.179211
    12  C   -0.339292
    13  C   -0.330631
    14  C   -0.327551
    15  C    0.092262
    16  C   -0.509336
    17  N   -0.787926
    18  C    0.767131
    19  C   -0.595739
    20  O   -0.613874
    21  C    0.819883
    22  O   -0.638549
    23  N   -0.807090
    24  C   -0.275605
    25  N   -0.843045
    26  C    0.744574
    27  C   -0.588672
    28  O   -0.591621
    29  H    0.186805
    30  H    0.198734
    31  H    0.162732
    32  H    0.391197
    33  H    0.198599
    34  H    0.143949
    35  H    0.212652
    36  H    0.160850
    37  H    0.182121
    38  H    0.163447
    39  H    0.179435
    40  H    0.212348
    41  H    0.171787
    42  H    0.180478
    43  H    0.170438
    44  H    0.183502
    45  H    0.163857
    46  H    0.157333
    47  H    0.197218
    48  H    0.177270
    49  H    0.179798
    50  H    0.184171
    51  H    0.147604
    52  H    0.227029
    53  H    0.390034
    54  H    0.211559
    55  H    0.209756
    56  H    0.176760
    57  H    0.395571
    58  H    0.164836
    59  H    0.198564
    60  H    0.186144
    61  H    0.382445
    62  H    0.218786
    63  H    0.177092
    64  H    0.201329
 Sum of Mulliken atomic charges =   0.00000

 Dipole moment (field-independent basis, Debye):
    X=             -0.8561    Y=             -1.4662    Z=              6.2844  Tot=              6.5097
 Quadrupole moment (field-independent basis, Debye-Ang):
   XX=           -231.6347   YY=           -152.1306   ZZ=           -170.1082
   XY=              3.2453   XZ=            -30.3314   YZ=              7.5191

 Normal termination of Gaussian 09 at Thu Dec  5 19:13:03 2019.
