 Gaussian 09, Revision A.02,
 Gaussian 09:  EM64L-G09RevA.02 11-Jun-2009

 ---------------------------------
 #SP HF/6-31G* Geom=(ModRedundant)
 ---------------------------------

 ------------
 paramfit run
 ------------
 Symbolic Z-matrix:
 Charge =  0 Multiplicity = 1

                         Standard orientation:
 ---------------------------------------------------------------------
 Center     Atomic      Atomic             Coordinates (Angstroms)
 Number     Number       Type             X           Y           Z
 ---------------------------------------------------------------------
      1          6    20001001       -4.372185    2.535697   -1.299362
      2          7    20001014       -3.799018    1.491317   -0.475957
      3          6    20001002       -3.063502    0.508869   -1.046851
      4          8    20001024       -2.668775    0.572667   -2.178163
      5          6    90000001       -2.634880   -0.647507   -0.125730
      6          6    90000002       -2.239056   -1.860083   -0.974743
      7          6    90000002       -1.469472   -0.193542    0.794781
      8          6    90000002       -0.148053    0.268184    0.154236
      9          6    90000002       -0.065263    1.724836   -0.343708
     10          6    20001004       -0.356403    2.756041    0.721248
     11          6    20001004        0.517744    3.445940    1.435855
     12          6    90000002        2.024131    3.372266    1.364282
     13          6    90000002        2.581381    1.947756    1.191626
     14          6    90000002        2.105923    1.278833   -0.105060
     15          6    90000002        2.730960   -0.086646   -0.491639
     16          6    90000002        2.045361   -0.562766   -1.782652
     17          7    20001014        4.152788    0.107911   -0.740803
     18          6    20001002        4.989367   -0.947991   -0.960503
     19          6    20001001        6.461627   -0.634161   -0.823522
     20          8    20001024        4.593510   -2.044954   -1.241768
     21          6    20001002        2.576895   -1.053997    0.703862
     22          8    20001024        3.371085   -1.034455    1.605420
     23          7    20001014        1.473534   -1.832146    0.736434
     24          6    20001001        1.292237   -2.796875    1.801624
     25          7    20001014       -3.723798   -0.998080    0.797736
     26          6    20001002       -4.953408   -1.424750    0.390694
     27          6    20001001       -5.800719   -2.066898    1.469503
     28          8    20001024       -5.343873   -1.292223   -0.734523
     29          1    20001035       -5.129439    2.149163   -1.971752
     30          1    20001035       -3.596642    3.003114   -1.888239
     31          1    20001035       -4.817542    3.280814   -0.652206
     32          1    20001029       -4.276519    1.258401    0.363108
     33          1    20001034       -1.454474   -1.609559   -1.672312
     34          1    20001034       -1.894110   -2.658851   -0.324959
     35          1    20001034       -3.085645   -2.211911   -1.546085
     36          1    20001034       -1.238613   -1.052899    1.420425
     37          1    20001034       -1.839008    0.578253    1.462655
     38          1    20001034        0.621539    0.137826    0.909452
     39          1    20001034        0.118280   -0.392553   -0.664219
     40          1    20001034       -0.743569    1.872408   -1.174061
     41          1    20001034        0.932386    1.870412   -0.742878
     42          1    20001033       -1.402061    2.942713    0.905275
     43          1    20001033        0.123159    4.148189    2.153428
     44          1    20001034        2.464336    3.802861    2.255503
     45          1    20001034        2.361492    3.988264    0.531619
     46          1    20001034        3.665626    2.011518    1.218468
     47          1    20001034        2.297249    1.346838    2.045440
     48          1    20001034        2.283834    1.949055   -0.943322
     49          1    20001034        1.033689    1.133149   -0.046412
     50          1    20001034        2.295569    0.124765   -2.582202
     51          1    20001034        0.965342   -0.560218   -1.678093
     52          1    20001034        2.377533   -1.549023   -2.070222
     53          1    20001029        4.567297    0.873333   -0.260154
     54          1    20001034        7.032625   -1.377659   -1.358528
     55          1    20001034        6.728712   -0.680039    0.227994
     56          1    20001034        6.704589    0.355021   -1.196177
     57          1    20001029        0.984749   -1.995015   -0.112019
     58          1    20001035        0.302749   -3.226072    1.714314
     59          1    20001035        1.379384   -2.304125    2.758824
     60          1    20001035        2.030915   -3.590623    1.756099
     61          1    20001029       -3.439873   -1.273741    1.711489
     62          1    20001034       -6.839326   -2.009864    1.177930
     63          1    20001034       -5.665398   -1.592125    2.434816
     64          1    20001034       -5.525058   -3.112330    1.563763
 ---------------------------------------------------------------------

 SCF Done:  E(RHF) =  -1295.30107144     A.U. after   15 cycles

 The electronic state is 1-A.
 Alpha  occ. eigenvalues --  -20.54081 -20.52242 -20.52167 -20.51784 -15.60118
 Alpha  occ. eigenvalues --  -15.58189 -15.57837 -15.57071 -11.36389 -11.34290
 Alpha  occ. eigenvalues --  -11.34062 -11.33909 -11.29665 -11.27992 -11.25953
 Alpha  occ. eigenvalues --  -11.25101 -11.24754 -11.24679 -11.23071 -11.22683
 Alpha  occ. eigenvalues --  -11.22606 -11.22353 -11.22302 -11.22280 -11.21948
 Alpha  occ. eigenvalues --  -11.21240 -11.19599 -11.18564  -1.41019  -1.39586
 Alpha  occ. eigenvalues --   -1.39101  -1.38157  -1.25946  -1.23806  -1.23146
 Alpha  occ. eigenvalues --   -1.22404  -1.17952  -1.09299  -1.07169  -1.05856
 Alpha  occ. eigenvalues --   -1.01656  -1.01040  -0.98626  -0.98204  -0.95916
 Alpha  occ. eigenvalues --   -0.95475  -0.92182  -0.88137  -0.86117  -0.84889
 Alpha  occ. eigenvalues --   -0.83322  -0.80485  -0.79867  -0.77542  -0.77069
 Alpha  occ. eigenvalues --   -0.72095  -0.71889  -0.71288  -0.69949  -0.69200
 Alpha  occ. eigenvalues --   -0.67833  -0.66064  -0.65286  -0.64790  -0.64256
 Alpha  occ. eigenvalues --   -0.63926  -0.63482  -0.62894  -0.62135  -0.61870
 Alpha  occ. eigenvalues --   -0.61479  -0.60454  -0.60243  -0.59827  -0.59394
 Alpha  occ. eigenvalues --   -0.58611  -0.58369  -0.57784  -0.56871  -0.56110
 Alpha  occ. eigenvalues --   -0.55679  -0.55331  -0.55134  -0.54785  -0.54283
 Alpha  occ. eigenvalues --   -0.53764  -0.53263  -0.52841  -0.52446  -0.51794
 Alpha  occ. eigenvalues --   -0.51469  -0.50969  -0.49811  -0.49350  -0.48793
 Alpha  occ. eigenvalues --   -0.46968  -0.46259  -0.44486  -0.43350  -0.42518
 Alpha  occ. eigenvalues --   -0.41548  -0.40937  -0.39776  -0.38956  -0.38657
 Alpha  occ. eigenvalues --   -0.38287  -0.34954  -0.33597
 Alpha virt. eigenvalues --    0.17144   0.18009   0.18546   0.19040   0.19644
 Alpha virt. eigenvalues --    0.21095   0.21301   0.22157   0.23061   0.23527
 Alpha virt. eigenvalues --    0.25294   0.25361   0.26013   0.26710   0.27345

 Mulliken atomic charges:
              1
     1  C   -0.280365
     2  N   -0.783358
     3  C    0.829914
     4  O   -0.630777
     5  C    0.105869
     6  C   -0.482691
     7  C   -0.312538
     8  C   -0.356804
     9  C   -0.528508
    10  C   -0.151911
    11  C   -0.189414
    12  C   -0.347116
    13  C   -0.285947
    14  C   -0.439925
    15  C    0.143985
    16  C   -0.533542
    17  N   -0.796017
    18  C    0.768803
    19  C   -0.595513
    20  O   -0.617470
    21  C    0.801142
    22  O   -0.635968
    23  N   -0.813984
    24  C   -0.272422
    25  N   -0.845823
    26  C    0.744073
    27  C   -0.589062
    28  O   -0.590717
    29  H    0.186956
    30  H    0.199292
    31  H    0.163899
    32  H    0.391509
    33  H    0.192549
    34  H    0.141265
    35  H    0.221901
    36  H    0.167125
    37  H    0.189440
    38  H    0.240724
    39  H    0.130043
    40  H    0.231855
    41  H    0.283544
    42  H    0.189060
    43  H    0.178364
    44  H    0.176220
    45  H    0.172007
    46  H    0.151011
    47  H    0.186812
    48  H    0.191987
    49  H    0.191355
    50  H    0.190479
    51  H    0.177389
    52  H    0.229615
    53  H    0.388980
    54  H    0.210242
    55  H    0.206752
    56  H    0.176878
    57  H    0.403092
    58  H    0.156506
    59  H    0.194479
    60  H    0.191419
    61  H    0.383122
    62  H    0.220163
    63  H    0.178495
    64  H    0.201558
 Sum of Mulliken atomic charges =   0.00000

 Dipole moment (field-independent basis, Debye):
    X=             -2.4094    Y=              1.7939    Z=              5.3180  Tot=              6.1077
 Quadrupole moment (field-independent basis, Debye-Ang):
   XX=           -172.6190   YY=           -167.5993   ZZ=           -181.6992
   XY=             16.0318   XZ=            -25.8677   YZ=             -6.4507

 Normal termination of Gaussian 09 at Thu Dec  5 18:32:28 2019.
