 Gaussian 09, Revision A.02,
 Gaussian 09:  EM64L-G09RevA.02 11-Jun-2009

 ---------------------------------
 #SP HF/6-31G* Geom=(ModRedundant)
 ---------------------------------

 ------------
 paramfit run
 ------------
 Symbolic Z-matrix:
 Charge =  0 Multiplicity = 1

                         Standard orientation:
 ---------------------------------------------------------------------
 Center     Atomic      Atomic             Coordinates (Angstroms)
 Number     Number       Type             X           Y           Z
 ---------------------------------------------------------------------
      1          6    20001001       -4.165302    2.990790   -0.210775
      2          7    20001014       -4.365803    1.605035    0.158993
      3          6    20001002       -4.676222    0.691271   -0.790103
      4          8    20001024       -4.577960    0.920930   -1.963708
      5          6    90000001       -5.035715   -0.719277   -0.289600
      6          6    90000002       -5.792286   -1.475629   -1.386584
      7          6    90000002       -3.750403   -1.477375    0.140356
      8          6    90000002       -2.649421   -1.733466   -0.904580
      9          6    90000002       -1.650287   -0.593372   -1.184855
     10          6    20001004       -0.911256   -0.108574    0.040331
     11          6    20001004        0.306218   -0.446024    0.433576
     12          6    90000002        1.258598   -1.401002   -0.245203
     13          6    90000002        2.677425   -0.840889   -0.452007
     14          6    90000002        3.372440   -0.485682    0.869241
     15          6    90000002        4.867942   -0.078757    0.818952
     16          6    90000002        5.299551    0.282869    2.249474
     17          7    20001014        5.643694   -1.219672    0.351992
     18          6    20001002        6.974979   -1.110115    0.071396
     19          6    20001001        7.548854   -2.242419   -0.749189
     20          8    20001024        7.645480   -0.188027    0.444658
     21          6    20001002        5.031157    1.068729   -0.203478
     22          8    20001024        5.138980    0.825472   -1.375284
     23          7    20001014        4.943544    2.333646    0.261592
     24          6    20001001        5.137926    3.455428   -0.633964
     25          7    20001014       -5.846833   -0.637986    0.933883
     26          6    20001002       -7.058970   -0.016509    0.998394
     27          6    20001001       -7.885009   -0.344228    2.224925
     28          8    20001024       -7.441435    0.743646    0.154578
     29          1    20001035       -5.079719    3.448613   -0.570202
     30          1    20001035       -3.419529    3.056529   -0.989379
     31          1    20001035       -3.813311    3.532884    0.657895
     32          1    20001029       -4.695750    1.421260    1.077496
     33          1    20001034       -5.215428   -1.523390   -2.297565
     34          1    20001034       -6.005006   -2.485326   -1.048206
     35          1    20001034       -6.723265   -0.977083   -1.613861
     36          1    20001034       -4.087968   -2.449033    0.494120
     37          1    20001034       -3.324235   -0.971683    1.001134
     38          1    20001034       -2.079101   -2.585981   -0.547409
     39          1    20001034       -3.094755   -2.041725   -1.844808
     40          1    20001034       -2.160848    0.243086   -1.644232
     41          1    20001034       -0.947673   -0.958463   -1.925717
     42          1    20001033       -1.450415    0.596515    0.652107
     43          1    20001033        0.675326    0.008429    1.339663
     44          1    20001034        0.867697   -1.699092   -1.210503
     45          1    20001034        1.319946   -2.310615    0.350982
     46          1    20001034        3.248984   -1.583447   -1.001827
     47          1    20001034        2.628051    0.030398   -1.091734
     48          1    20001034        3.304300   -1.330324    1.551495
     49          1    20001034        2.835116    0.332669    1.333930
     50          1    20001034        5.246231   -0.608453    2.863710
     51          1    20001034        4.633181    1.019121    2.686813
     52          1    20001034        6.313788    0.651926    2.278753
     53          1    20001029        5.149336   -1.862355   -0.223577
     54          1    20001034        8.618325   -2.275093   -0.606972
     55          1    20001034        7.342651   -2.048908   -1.797596
     56          1    20001034        7.112934   -3.199793   -0.485008
     57          1    20001029        5.096431    2.493135    1.229321
     58          1    20001035        4.908502    4.367944   -0.099549
     59          1    20001035        4.472870    3.366048   -1.480332
     60          1    20001035        6.157431    3.504405   -1.002699
     61          1    20001029       -5.678332   -1.350381    1.608901
     62          1    20001034       -8.601700    0.448027    2.385108
     63          1    20001034       -7.272790   -0.468069    3.111154
     64          1    20001034       -8.425330   -1.269696    2.053564
 ---------------------------------------------------------------------

 SCF Done:  E(RHF) =  -1295.62098920     A.U. after   14 cycles

 The electronic state is 1-A.
 Alpha  occ. eigenvalues --  -20.53663 -20.52142 -20.51852 -20.51716 -15.59622
 Alpha  occ. eigenvalues --  -15.58042 -15.57629 -15.57535 -11.35982 -11.34349
 Alpha  occ. eigenvalues --  -11.33866 -11.33805 -11.29038 -11.28701 -11.25124
 Alpha  occ. eigenvalues --  -11.24886 -11.24375 -11.24015 -11.23563 -11.22702
 Alpha  occ. eigenvalues --  -11.22589 -11.22573 -11.22424 -11.22249 -11.21987
 Alpha  occ. eigenvalues --  -11.21932 -11.21579 -11.20871  -1.40599  -1.39476
 Alpha  occ. eigenvalues --   -1.38710  -1.38201  -1.25445  -1.23659  -1.22751
 Alpha  occ. eigenvalues --   -1.22082  -1.10777  -1.09340  -1.07247  -1.04300
 Alpha  occ. eigenvalues --   -1.01294  -0.99353  -0.98818  -0.95516  -0.95202
 Alpha  occ. eigenvalues --   -0.94659  -0.92251  -0.87237  -0.85809  -0.82849
 Alpha  occ. eigenvalues --   -0.81401  -0.79627  -0.78827  -0.77185  -0.77000
 Alpha  occ. eigenvalues --   -0.72075  -0.71419  -0.71158  -0.69005  -0.68057
 Alpha  occ. eigenvalues --   -0.66374  -0.65863  -0.64705  -0.64053  -0.63889
 Alpha  occ. eigenvalues --   -0.62587  -0.62241  -0.61854  -0.61532  -0.61314
 Alpha  occ. eigenvalues --   -0.60945  -0.59913  -0.59468  -0.58797  -0.58502
 Alpha  occ. eigenvalues --   -0.58305  -0.57888  -0.56658  -0.56450  -0.56213
 Alpha  occ. eigenvalues --   -0.55518  -0.55056  -0.54863  -0.54549  -0.54056
 Alpha  occ. eigenvalues --   -0.53243  -0.52826  -0.52645  -0.52105  -0.51571
 Alpha  occ. eigenvalues --   -0.51041  -0.50289  -0.49879  -0.49536  -0.48645
 Alpha  occ. eigenvalues --   -0.48395  -0.46965  -0.46291  -0.44474  -0.42875
 Alpha  occ. eigenvalues --   -0.41953  -0.41615  -0.41162  -0.39296  -0.38956
 Alpha  occ. eigenvalues --   -0.38408  -0.38318  -0.34504
 Alpha virt. eigenvalues --    0.17548   0.18784   0.19552   0.19972   0.20200
 Alpha virt. eigenvalues --    0.21450   0.21946   0.22877   0.23408   0.24075
 Alpha virt. eigenvalues --    0.25225   0.25790   0.26470   0.26574   0.27764

 Mulliken atomic charges:
              1
     1  C   -0.279748
     2  N   -0.783369
     3  C    0.822082
     4  O   -0.628283
     5  C    0.102414
     6  C   -0.472733
     7  C   -0.334273
     8  C   -0.310962
     9  C   -0.372896
    10  C   -0.184936
    11  C   -0.169841
    12  C   -0.351628
    13  C   -0.317285
    14  C   -0.332120
    15  C    0.092990
    16  C   -0.509496
    17  N   -0.788080
    18  C    0.767310
    19  C   -0.595699
    20  O   -0.613889
    21  C    0.820413
    22  O   -0.638769
    23  N   -0.806476
    24  C   -0.275570
    25  N   -0.843064
    26  C    0.744562
    27  C   -0.588670
    28  O   -0.591704
    29  H    0.186902
    30  H    0.198712
    31  H    0.162305
    32  H    0.391218
    33  H    0.198762
    34  H    0.144007
    35  H    0.212538
    36  H    0.161130
    37  H    0.181997
    38  H    0.164117
    39  H    0.179282
    40  H    0.212469
    41  H    0.173640
    42  H    0.180411
    43  H    0.170735
    44  H    0.178728
    45  H    0.161516
    46  H    0.154152
    47  H    0.199864
    48  H    0.175351
    49  H    0.181234
    50  H    0.183893
    51  H    0.147753
    52  H    0.226954
    53  H    0.389905
    54  H    0.211360
    55  H    0.209691
    56  H    0.176476
    57  H    0.395368
    58  H    0.164798
    59  H    0.199294
    60  H    0.185489
    61  H    0.382531
    62  H    0.218669
    63  H    0.177135
    64  H    0.201334
 Sum of Mulliken atomic charges =   0.00000

 Dipole moment (field-independent basis, Debye):
    X=             -2.0063    Y=             -3.2043    Z=              6.8014  Tot=              7.7814
 Quadrupole moment (field-independent basis, Debye-Ang):
   XX=           -211.4440   YY=           -152.3417   ZZ=           -173.4364
   XY=             11.5055   XZ=            -25.4720   YZ=              8.4537

 Normal termination of Gaussian 09 at Thu Dec  5 18:52:30 2019.
