 Gaussian 09, Revision A.02,
 Gaussian 09:  EM64L-G09RevA.02 11-Jun-2009

 ---------------------------------
 #SP HF/6-31G* Geom=(ModRedundant)
 ---------------------------------

 ------------
 paramfit run
 ------------
 Symbolic Z-matrix:
 Charge =  0 Multiplicity = 1

                         Standard orientation:
 ---------------------------------------------------------------------
 Center     Atomic      Atomic             Coordinates (Angstroms)
 Number     Number       Type             X           Y           Z
 ---------------------------------------------------------------------
      1          6    20001001       -5.325245    2.082617    1.403772
      2          7    20001014       -4.505039    0.975501    0.957901
      3          6    20001002       -4.302520    0.775503   -0.365389
      4          8    20001024       -4.583336    1.597902   -1.192764
      5          6    90000001       -3.560776   -0.515433   -0.756137
      6          6    90000002       -3.815761   -0.826203   -2.234734
      7          6    90000002       -2.043361   -0.370481   -0.459416
      8          6    90000002       -1.245170    0.735884   -1.172494
      9          6    90000002       -1.300365    2.155927   -0.574942
     10          6    20001004       -0.858939    2.233379    0.867771
     11          6    20001004        0.327642    2.593228    1.329606
     12          6    90000002        1.535614    3.014891    0.527885
     13          6    90000002        2.692193    1.999182    0.542961
     14          6    90000002        2.295890    0.641362   -0.052174
     15          6    90000002        3.411287   -0.415336   -0.261745
     16          6    90000002        2.746877   -1.691013   -0.804573
     17          7    20001014        4.355784    0.095997   -1.245612
     18          6    20001002        5.520497   -0.559081   -1.523773
     19          6    20001001        6.554099    0.262649   -2.259459
     20          8    20001024        5.716192   -1.700709   -1.211475
     21          6    20001002        4.162276   -0.609296    1.075087
     22          8    20001024        5.043869    0.144177    1.389734
     23          7    20001014        3.719913   -1.581200    1.901948
     24          6    20001001        4.409673   -1.849773    3.147058
     25          7    20001014       -4.000113   -1.635151    0.089230
     26          6    20001002       -5.288676   -2.077408    0.149936
     27          6    20001001       -5.471668   -3.439140    0.787366
     28          8    20001024       -6.213070   -1.433575   -0.258862
     29          1    20001035       -6.360895    1.962243    1.107311
     30          1    20001035       -4.952901    3.005232    0.983220
     31          1    20001035       -5.268572    2.141943    2.483412
     32          1    20001029       -4.469327    0.171217    1.539396
     33          1    20001034       -3.516952   -0.002222   -2.864575
     34          1    20001034       -3.255342   -1.711661   -2.519568
     35          1    20001034       -4.867283   -1.005011   -2.405777
     36          1    20001034       -1.597200   -1.320862   -0.743909
     37          1    20001034       -1.909580   -0.281050    0.614076
     38          1    20001034       -0.206303    0.419171   -1.164361
     39          1    20001034       -1.535666    0.788711   -2.216619
     40          1    20001034       -2.302389    2.555939   -0.660400
     41          1    20001034       -0.672259    2.787871   -1.192974
     42          1    20001033       -1.610633    1.965211    1.592447
     43          1    20001033        0.460607    2.593638    2.400158
     44          1    20001034        1.913253    3.964136    0.888147
     45          1    20001034        1.225302    3.183542   -0.502580
     46          1    20001034        3.521774    2.434792   -0.006959
     47          1    20001034        3.042627    1.871539    1.558704
     48          1    20001034        1.828830    0.794994   -1.022630
     49          1    20001034        1.545060    0.189777    0.585537
     50          1    20001034        2.338956   -1.479013   -1.786019
     51          1    20001034        1.923547   -2.005255   -0.171515
     52          1    20001034        3.455876   -2.499455   -0.901940
     53          1    20001029        4.412042    1.086952   -1.305245
     54          1    20001034        7.248129   -0.401327   -2.751921
     55          1    20001034        7.098863    0.861576   -1.535828
     56          1    20001034        6.103478    0.929401   -2.986621
     57          1    20001029        3.172270   -2.314969    1.518566
     58          1    20001035        3.833984   -2.570831    3.712373
     59          1    20001035        4.494482   -0.938715    3.720998
     60          1    20001035        5.407084   -2.242752    2.978254
     61          1    20001029       -3.294008   -2.295135    0.328782
     62          1    20001034       -6.489512   -3.526309    1.138604
     63          1    20001034       -4.785519   -3.602559    1.610801
     64          1    20001034       -5.296285   -4.207906    0.041684
 ---------------------------------------------------------------------

 SCF Done:  E(RHF) =  -1295.61948511     A.U. after   14 cycles

 The electronic state is 1-A.
 Alpha  occ. eigenvalues --  -20.53821 -20.52361 -20.52051 -20.52029 -15.59812
 Alpha  occ. eigenvalues --  -15.58434 -15.57842 -15.57691 -11.36142 -11.34552
 Alpha  occ. eigenvalues --  -11.34134 -11.34044 -11.29251 -11.28932 -11.25563
 Alpha  occ. eigenvalues --  -11.25001 -11.24515 -11.24307 -11.23572 -11.22888
 Alpha  occ. eigenvalues --  -11.22748 -11.22682 -11.22609 -11.22384 -11.22327
 Alpha  occ. eigenvalues --  -11.22178 -11.21849 -11.21059  -1.40759  -1.39750
 Alpha  occ. eigenvalues --   -1.38884  -1.38482  -1.25632  -1.23884  -1.23134
 Alpha  occ. eigenvalues --   -1.22240  -1.11083  -1.09453  -1.07441  -1.04473
 Alpha  occ. eigenvalues --   -1.01487  -0.99572  -0.99029  -0.95660  -0.95551
 Alpha  occ. eigenvalues --   -0.95017  -0.92419  -0.87452  -0.86096  -0.83048
 Alpha  occ. eigenvalues --   -0.81564  -0.79880  -0.79014  -0.77347  -0.77325
 Alpha  occ. eigenvalues --   -0.72299  -0.71596  -0.71325  -0.69145  -0.68357
 Alpha  occ. eigenvalues --   -0.66659  -0.66072  -0.64823  -0.64456  -0.64020
 Alpha  occ. eigenvalues --   -0.62789  -0.62556  -0.62124  -0.61769  -0.61450
 Alpha  occ. eigenvalues --   -0.61025  -0.60297  -0.59707  -0.59130  -0.58577
 Alpha  occ. eigenvalues --   -0.58414  -0.57928  -0.57041  -0.56907  -0.56462
 Alpha  occ. eigenvalues --   -0.55823  -0.55422  -0.55193  -0.54691  -0.54343
 Alpha  occ. eigenvalues --   -0.53593  -0.53016  -0.52850  -0.51996  -0.51859
 Alpha  occ. eigenvalues --   -0.51197  -0.50290  -0.50087  -0.49778  -0.48855
 Alpha  occ. eigenvalues --   -0.48136  -0.46980  -0.46954  -0.44801  -0.43046
 Alpha  occ. eigenvalues --   -0.42170  -0.41829  -0.41384  -0.39475  -0.39272
 Alpha  occ. eigenvalues --   -0.38727  -0.38477  -0.34721
 Alpha virt. eigenvalues --    0.17576   0.18601   0.19071   0.19681   0.19777
 Alpha virt. eigenvalues --    0.21134   0.21455   0.22820   0.23150   0.23740
 Alpha virt. eigenvalues --    0.25098   0.25555   0.26090   0.26642   0.27138

 Mulliken atomic charges:
              1
     1  C   -0.280020
     2  N   -0.783418
     3  C    0.822087
     4  O   -0.628322
     5  C    0.102756
     6  C   -0.472745
     7  C   -0.333907
     8  C   -0.318586
     9  C   -0.374134
    10  C   -0.182966
    11  C   -0.171723
    12  C   -0.353879
    13  C   -0.314932
    14  C   -0.329836
    15  C    0.093887
    16  C   -0.510032
    17  N   -0.787924
    18  C    0.767139
    19  C   -0.595871
    20  O   -0.614597
    21  C    0.819835
    22  O   -0.638850
    23  N   -0.807526
    24  C   -0.275163
    25  N   -0.843011
    26  C    0.744685
    27  C   -0.588743
    28  O   -0.591234
    29  H    0.187146
    30  H    0.198520
    31  H    0.163372
    32  H    0.391332
    33  H    0.198661
    34  H    0.144155
    35  H    0.213214
    36  H    0.159321
    37  H    0.181367
    38  H    0.167989
    39  H    0.179845
    40  H    0.213741
    41  H    0.172960
    42  H    0.182493
    43  H    0.173557
    44  H    0.178914
    45  H    0.164519
    46  H    0.154054
    47  H    0.191078
    48  H    0.178322
    49  H    0.185677
    50  H    0.184624
    51  H    0.142948
    52  H    0.227661
    53  H    0.390745
    54  H    0.211656
    55  H    0.209507
    56  H    0.177656
    57  H    0.394294
    58  H    0.163528
    59  H    0.198069
    60  H    0.186672
    61  H    0.381755
    62  H    0.219310
    63  H    0.176780
    64  H    0.201588
 Sum of Mulliken atomic charges =   0.00000

 Dipole moment (field-independent basis, Debye):
    X=              0.0599    Y=             -2.9746    Z=              2.8576  Tot=              4.1253
 Quadrupole moment (field-independent basis, Debye-Ang):
   XX=           -224.7959   YY=           -162.7847   ZZ=           -165.0876
   XY=             24.5121   XZ=            -24.0385   YZ=             -7.5706

 Normal termination of Gaussian 09 at Thu Dec  5 18:47:09 2019.
