 Gaussian 09, Revision A.02,
 Gaussian 09:  EM64L-G09RevA.02 11-Jun-2009

 ---------------------------------
 #SP HF/6-31G* Geom=(ModRedundant)
 ---------------------------------

 ------------
 paramfit run
 ------------
 Symbolic Z-matrix:
 Charge =  0 Multiplicity = 1

                         Standard orientation:
 ---------------------------------------------------------------------
 Center     Atomic      Atomic             Coordinates (Angstroms)
 Number     Number       Type             X           Y           Z
 ---------------------------------------------------------------------
      1          6    20001001       -5.303428    2.171081    1.104252
      2          7    20001014       -4.439924    1.047346    0.806217
      3          6    20001002       -4.133365    0.753894   -0.479091
      4          8    20001024       -4.357492    1.508718   -1.384494
      5          6    90000001       -3.350493   -0.550336   -0.714637
      6          6    90000002       -3.486867   -0.972915   -2.181154
      7          6    90000002       -1.862211   -0.359922   -0.314186
      8          6    90000002       -1.022382    0.703579   -1.044453
      9          6    90000002       -1.138157    2.162636   -0.560317
     10          6    20001004       -0.810763    2.352878    0.902181
     11          6    20001004        0.332713    2.764465    1.425454
     12          6    90000002        1.594887    3.145187    0.689438
     13          6    90000002        2.671208    2.044933    0.666167
     14          6    90000002        2.194657    0.764804   -0.033178
     15          6    90000002        3.234369   -0.357912   -0.284481
     16          6    90000002        2.495001   -1.539259   -0.933486
     17          7    20001014        4.246727    0.144535   -1.203288
     18          6    20001002        5.367881   -0.577827   -1.493575
     19          6    20001001        6.483952    0.209808   -2.140738
     20          8    20001024        5.467215   -1.749569   -1.256307
     21          6    20001002        3.923742   -0.698697    1.056173
     22          8    20001024        4.848166   -0.038115    1.447323
     23          7    20001014        3.382665   -1.687289    1.800421
     24          6    20001001        4.008503   -2.091407    3.042684
     25          7    20001014       -3.842691   -1.611739    0.175641
     26          6    20001002       -5.127528   -2.068723    0.170244
     27          6    20001001       -5.345585   -3.382668    0.891436
     28          8    20001024       -6.023915   -1.471412   -0.354971
     29          1    20001035       -6.311691    2.012836    0.739130
     30          1    20001035       -4.908966    3.066091    0.645907
     31          1    20001035       -5.331266    2.310468    2.177635
     32          1    20001029       -4.441263    0.288631    1.447024
     33          1    20001034       -3.148481   -0.192804   -2.845877
     34          1    20001034       -2.897091   -1.867907   -2.355482
     35          1    20001034       -4.520087   -1.180464   -2.418440
     36          1    20001034       -1.385711   -1.321441   -0.492091
     37          1    20001034       -1.813005   -0.189744    0.756747
     38          1    20001034        0.015884    0.404838   -0.933205
     39          1    20001034       -1.231543    0.674928   -2.108785
     40          1    20001034       -2.134540    2.539342   -0.751829
     41          1    20001034       -0.470452    2.757343   -1.173772
     42          1    20001033       -1.613639    2.126792    1.585107
     43          1    20001033        0.382235    2.845645    2.500032
     44          1    20001034        2.030151    4.036155    1.125544
     45          1    20001034        1.332599    3.406283   -0.335075
     46          1    20001034        3.548900    2.451617    0.171557
     47          1    20001034        2.977037    1.822541    1.679991
     48          1    20001034        1.773023    1.018954   -1.003316
     49          1    20001034        1.391329    0.330259    0.550075
     50          1    20001034        2.137035   -1.230849   -1.908844
     51          1    20001034        1.629833   -1.831298   -0.347330
     52          1    20001034        3.144479   -2.391366   -1.067023
     53          1    20001029        4.378816    1.129998   -1.192026
     54          1    20001034        7.142487   -0.470796   -2.658591
     55          1    20001034        7.047486    0.714950   -1.362030
     56          1    20001034        6.108917    0.956722   -2.832006
     57          1    20001029        2.794836   -2.349290    1.351510
     58          1    20001035        3.362015   -2.802586    3.539876
     59          1    20001035        4.141934   -1.230342    3.680953
     60          1    20001035        4.978844   -2.547566    2.875022
     61          1    20001029       -3.150634   -2.241053    0.517063
     62          1    20001034       -6.386668   -3.459927    1.169196
     63          1    20001034       -4.723745   -3.474237    1.774884
     64          1    20001034       -5.105107   -4.201268    0.220715
 ---------------------------------------------------------------------

 SCF Done:  E(RHF) =  -1295.61314428     A.U. after   14 cycles

 The electronic state is 1-A.
 Alpha  occ. eigenvalues --  -20.53823 -20.52391 -20.52101 -20.52027 -15.59813
 Alpha  occ. eigenvalues --  -15.58501 -15.57878 -15.57692 -11.36142 -11.34581
 Alpha  occ. eigenvalues --  -11.34186 -11.34044 -11.29245 -11.28982 -11.25626
 Alpha  occ. eigenvalues --  -11.25002 -11.24519 -11.24309 -11.23568 -11.22765
 Alpha  occ. eigenvalues --  -11.22701 -11.22649 -11.22624 -11.22401 -11.22379
 Alpha  occ. eigenvalues --  -11.22182 -11.21869 -11.21054  -1.40760  -1.39791
 Alpha  occ. eigenvalues --   -1.38883  -1.38521  -1.25633  -1.23925  -1.23197
 Alpha  occ. eigenvalues --   -1.22240  -1.11203  -1.09398  -1.07464  -1.04483
 Alpha  occ. eigenvalues --   -1.01517  -0.99631  -0.99044  -0.95661  -0.95608
 Alpha  occ. eigenvalues --   -0.95098  -0.92386  -0.87473  -0.86207  -0.83288
 Alpha  occ. eigenvalues --   -0.81565  -0.79953  -0.78894  -0.77379  -0.77346
 Alpha  occ. eigenvalues --   -0.72297  -0.71618  -0.71315  -0.69140  -0.68489
 Alpha  occ. eigenvalues --   -0.66665  -0.66085  -0.64822  -0.64524  -0.64030
 Alpha  occ. eigenvalues --   -0.62824  -0.62621  -0.62213  -0.61815  -0.61486
 Alpha  occ. eigenvalues --   -0.61060  -0.60528  -0.59648  -0.59243  -0.58628
 Alpha  occ. eigenvalues --   -0.58398  -0.57913  -0.57088  -0.56981  -0.56455
 Alpha  occ. eigenvalues --   -0.55865  -0.55445  -0.55207  -0.54690  -0.54162
 Alpha  occ. eigenvalues --   -0.53594  -0.53020  -0.52957  -0.52106  -0.51914
 Alpha  occ. eigenvalues --   -0.51167  -0.50334  -0.50100  -0.49899  -0.48996
 Alpha  occ. eigenvalues --   -0.48156  -0.47012  -0.46509  -0.44772  -0.43046
 Alpha  occ. eigenvalues --   -0.42200  -0.41792  -0.41418  -0.39476  -0.39316
 Alpha  occ. eigenvalues --   -0.38774  -0.38476  -0.34722
 Alpha virt. eigenvalues --    0.17419   0.18563   0.19000   0.19369   0.19761
 Alpha virt. eigenvalues --    0.21101   0.21545   0.22804   0.23143   0.23962
 Alpha virt. eigenvalues --    0.24780   0.25500   0.25938   0.26651   0.26927

 Mulliken atomic charges:
              1
     1  C   -0.280022
     2  N   -0.783470
     3  C    0.822160
     4  O   -0.628381
     5  C    0.103095
     6  C   -0.472661
     7  C   -0.333865
     8  C   -0.321648
     9  C   -0.374115
    10  C   -0.180827
    11  C   -0.175854
    12  C   -0.355888
    13  C   -0.308771
    14  C   -0.339385
    15  C    0.096645
    16  C   -0.512280
    17  N   -0.788342
    18  C    0.767188
    19  C   -0.595919
    20  O   -0.614629
    21  C    0.819860
    22  O   -0.638872
    23  N   -0.808106
    24  C   -0.275109
    25  N   -0.843040
    26  C    0.744761
    27  C   -0.588793
    28  O   -0.591221
    29  H    0.187156
    30  H    0.198455
    31  H    0.163399
    32  H    0.391361
    33  H    0.198837
    34  H    0.143943
    35  H    0.213186
    36  H    0.157698
    37  H    0.181283
    38  H    0.171106
    39  H    0.179206
    40  H    0.214324
    41  H    0.171137
    42  H    0.182968
    43  H    0.174278
    44  H    0.178048
    45  H    0.166681
    46  H    0.153622
    47  H    0.191414
    48  H    0.181412
    49  H    0.189151
    50  H    0.186718
    51  H    0.142328
    52  H    0.228451
    53  H    0.390946
    54  H    0.211785
    55  H    0.209467
    56  H    0.177876
    57  H    0.393892
    58  H    0.163069
    59  H    0.198340
    60  H    0.186893
    61  H    0.381412
    62  H    0.219367
    63  H    0.176760
    64  H    0.201518
 Sum of Mulliken atomic charges =   0.00000

 Dipole moment (field-independent basis, Debye):
    X=              0.0074    Y=             -2.4288    Z=              3.3458  Tot=              4.1345
 Quadrupole moment (field-independent basis, Debye-Ang):
   XX=           -218.3094   YY=           -162.4586   ZZ=           -168.1381
   XY=             23.6793   XZ=            -26.4976   YZ=             -7.5165

 Normal termination of Gaussian 09 at Thu Dec  5 18:53:59 2019.
