 Gaussian 09, Revision A.02,
 Gaussian 09:  EM64L-G09RevA.02 11-Jun-2009

 ---------------------------------
 #SP HF/6-31G* Geom=(ModRedundant)
 ---------------------------------

 ------------
 paramfit run
 ------------
 Symbolic Z-matrix:
 Charge =  0 Multiplicity = 1

                         Standard orientation:
 ---------------------------------------------------------------------
 Center     Atomic      Atomic             Coordinates (Angstroms)
 Number     Number       Type             X           Y           Z
 ---------------------------------------------------------------------
      1          6    20001001        5.317201   -2.002256    1.665029
      2          7    20001014        4.558021   -0.912272    1.088118
      3          6    20001002        4.454983   -0.799010   -0.256748
      4          8    20001024        4.773718   -1.681225   -1.004980
      5          6    90000001        3.774614    0.476553   -0.785350
      6          6    90000002        4.141526    0.680772   -2.258955
      7          6    90000002        2.236866    0.381875   -0.590493
      8          6    90000002        1.464590   -0.754694   -1.284349
      9          6    90000002        1.442505   -2.131513   -0.591155
     10          6    20001004        0.897923   -2.101800    0.817684
     11          6    20001004       -0.326904   -2.406053    1.215158
     12          6    90000002       -1.484789   -2.857668    0.357779
     13          6    90000002       -2.713922   -1.932697    0.414606
     14          6    90000002       -2.408774   -0.511246   -0.076591
     15          6    90000002       -3.595672    0.473236   -0.240033
     16          6    90000002       -3.018073    1.828886   -0.678260
     17          7    20001014       -4.480751   -0.035599   -1.278904
     18          6    20001002       -5.685599    0.550518   -1.539409
     19          6    20001001       -6.641060   -0.290997   -2.354119
     20          8    20001024       -5.971669    1.650141   -1.154522
     21          6    20001002       -4.384057    0.517788    1.088572
     22          8    20001024       -5.212815   -0.318231    1.329742
     23          7    20001014       -4.030993    1.459145    1.990333
     24          6    20001001       -4.762165    1.588819    3.234027
     25          7    20001014        4.179975    1.642478    0.013232
     26          6    20001002        5.471379    2.062551    0.137671
     27          6    20001001        5.641803    3.460723    0.694619
     28          8    20001024        6.406490    1.374393   -0.159220
     29          1    20001035        6.373927   -1.922651    1.437120
     30          1    20001035        4.953269   -2.943929    1.280935
     31          1    20001035        5.182527   -1.986736    2.739261
     32          1    20001029        4.500726   -0.069679    1.610650
     33          1    20001034        3.868200   -0.178219   -2.852554
     34          1    20001034        3.624545    1.555551   -2.642009
     35          1    20001034        5.206594    0.826902   -2.364794
     36          1    20001034        1.835380    1.319200   -0.969242
     37          1    20001034        2.025003    0.368455    0.474033
     38          1    20001034        0.435813   -0.417901   -1.372700
     39          1    20001034        1.827166   -0.884237   -2.298810
     40          1    20001034        2.438003   -2.555944   -0.576879
     41          1    20001034        0.844661   -2.791704   -1.209674
     42          1    20001033        1.602548   -1.799618    1.575512
     43          1    20001033       -0.535571   -2.330893    2.270890
     44          1    20001034       -1.797354   -3.854840    0.643118
     45          1    20001034       -1.143430   -2.930668   -0.674083
     46          1    20001034       -3.498236   -2.388175   -0.183529
     47          1    20001034       -3.091950   -1.902393    1.428019
     48          1    20001034       -1.913379   -0.562056   -1.043824
     49          1    20001034       -1.705821   -0.051770    0.608309
     50          1    20001034       -2.577087    1.716457   -1.661863
     51          1    20001034       -2.232514    2.157343   -0.005660
     52          1    20001034       -3.783389    2.588213   -0.737045
     53          1    20001029       -4.461873   -1.021406   -1.407515
     54          1    20001034       -7.373247    0.353350   -2.816481
     55          1    20001034       -7.153201   -0.977285   -1.686403
     56          1    20001034       -6.128399   -0.870524   -3.114189
     57          1    20001029       -3.532435    2.255979    1.671266
     58          1    20001035       -4.252554    2.308659    3.860962
     59          1    20001035       -4.789633    0.636071    3.742104
     60          1    20001035       -5.782732    1.918749    3.068669
     61          1    20001029        3.474956    2.330941    0.156460
     62          1    20001034        6.633941    3.551701    1.112181
     63          1    20001034        4.903074    3.693279    1.453399
     64          1    20001034        5.538667    4.180159   -0.111344
 ---------------------------------------------------------------------

 SCF Done:  E(RHF) =  -1295.62174497     A.U. after   14 cycles

 The electronic state is 1-A.
 Alpha  occ. eigenvalues --  -20.53808 -20.52340 -20.52019 -20.52016 -15.59796
 Alpha  occ. eigenvalues --  -15.58390 -15.57820 -15.57679 -11.36129 -11.34534
 Alpha  occ. eigenvalues --  -11.34101 -11.34031 -11.29236 -11.28902 -11.25518
 Alpha  occ. eigenvalues --  -11.24990 -11.24503 -11.24279 -11.23589 -11.22959
 Alpha  occ. eigenvalues --  -11.22737 -11.22671 -11.22601 -11.22379 -11.22261
 Alpha  occ. eigenvalues --  -11.22156 -11.21817 -11.21047  -1.40746  -1.39724
 Alpha  occ. eigenvalues --   -1.38872  -1.38455  -1.25617  -1.23860  -1.23093
 Alpha  occ. eigenvalues --   -1.22227  -1.11011  -1.09472  -1.07424  -1.04466
 Alpha  occ. eigenvalues --   -1.01466  -0.99535  -0.99012  -0.95648  -0.95510
 Alpha  occ. eigenvalues --   -0.94961  -0.92421  -0.87423  -0.86033  -0.82930
 Alpha  occ. eigenvalues --   -0.81560  -0.79842  -0.79055  -0.77334  -0.77290
 Alpha  occ. eigenvalues --   -0.72301  -0.71603  -0.71323  -0.69138  -0.68271
 Alpha  occ. eigenvalues --   -0.66589  -0.66049  -0.64849  -0.64417  -0.64014
 Alpha  occ. eigenvalues --   -0.62764  -0.62507  -0.62046  -0.61733  -0.61434
 Alpha  occ. eigenvalues --   -0.60971  -0.60179  -0.59757  -0.59037  -0.58530
 Alpha  occ. eigenvalues --   -0.58410  -0.57916  -0.57057  -0.56757  -0.56462
 Alpha  occ. eigenvalues --   -0.55821  -0.55431  -0.55178  -0.54684  -0.54470
 Alpha  occ. eigenvalues --   -0.53583  -0.52984  -0.52803  -0.51958  -0.51776
 Alpha  occ. eigenvalues --   -0.51201  -0.50252  -0.50090  -0.49642  -0.48761
 Alpha  occ. eigenvalues --   -0.48143  -0.47129  -0.46967  -0.44825  -0.43034
 Alpha  occ. eigenvalues --   -0.42137  -0.41840  -0.41361  -0.39461  -0.39241
 Alpha  occ. eigenvalues --   -0.38694  -0.38464  -0.34689
 Alpha virt. eigenvalues --    0.17691   0.18623   0.19022   0.19798   0.19889
 Alpha virt. eigenvalues --    0.21101   0.21379   0.22864   0.23174   0.23491
 Alpha virt. eigenvalues --    0.25284   0.25578   0.26059   0.26820   0.27183

 Mulliken atomic charges:
              1
     1  C   -0.279999
     2  N   -0.783380
     3  C    0.822037
     4  O   -0.628334
     5  C    0.102689
     6  C   -0.472777
     7  C   -0.333981
     8  C   -0.315889
     9  C   -0.373987
    10  C   -0.185613
    11  C   -0.169256
    12  C   -0.350969
    13  C   -0.319666
    14  C   -0.326002
    15  C    0.092098
    16  C   -0.509311
    17  N   -0.787544
    18  C    0.767063
    19  C   -0.595829
    20  O   -0.614489
    21  C    0.819824
    22  O   -0.638762
    23  N   -0.807172
    24  C   -0.275208
    25  N   -0.843038
    26  C    0.744632
    27  C   -0.588708
    28  O   -0.591290
    29  H    0.187109
    30  H    0.198549
    31  H    0.163313
    32  H    0.391305
    33  H    0.198581
    34  H    0.144186
    35  H    0.213159
    36  H    0.160226
    37  H    0.181465
    38  H    0.165149
    39  H    0.179942
    40  H    0.213745
    41  H    0.173701
    42  H    0.182119
    43  H    0.172911
    44  H    0.180138
    45  H    0.162900
    46  H    0.154639
    47  H    0.190928
    48  H    0.177474
    49  H    0.184459
    50  H    0.183531
    51  H    0.144255
    52  H    0.227228
    53  H    0.390583
    54  H    0.211585
    55  H    0.209552
    56  H    0.177459
    57  H    0.394693
    58  H    0.163887
    59  H    0.197890
    60  H    0.186555
    61  H    0.382005
    62  H    0.219226
    63  H    0.176825
    64  H    0.201587
 Sum of Mulliken atomic charges =   0.00000

 Dipole moment (field-independent basis, Debye):
    X=             -0.0866    Y=              3.4893    Z=              2.3668  Tot=              4.2172
 Quadrupole moment (field-independent basis, Debye-Ang):
   XX=           -230.0984   YY=           -163.4240   ZZ=           -162.2516
   XY=             25.3860   XZ=             21.2314   YZ=              7.4906

 Normal termination of Gaussian 09 at Thu Dec  5 18:40:54 2019.
