 Gaussian 09, Revision A.02,
 Gaussian 09:  EM64L-G09RevA.02 11-Jun-2009

 ---------------------------------
 #SP HF/6-31G* Geom=(ModRedundant)
 ---------------------------------

 ------------
 paramfit run
 ------------
 Symbolic Z-matrix:
 Charge =  0 Multiplicity = 1

                         Standard orientation:
 ---------------------------------------------------------------------
 Center     Atomic      Atomic             Coordinates (Angstroms)
 Number     Number       Type             X           Y           Z
 ---------------------------------------------------------------------
      1          6    20001001       -3.976468    2.965508   -0.335085
      2          7    20001014       -4.274407    1.609680    0.077475
      3          6    20001002       -4.431778    0.639944   -0.853630
      4          8    20001024       -4.118586    0.791007   -2.002036
      5          6    90000001       -4.910177   -0.729974   -0.339972
      6          6    90000002       -5.475828   -1.546447   -1.506699
      7          6    90000002       -3.742215   -1.475185    0.361547
      8          6    90000002       -2.478085   -1.813582   -0.449069
      9          6    90000002       -1.416924   -0.707534   -0.614090
     10          6    20001004       -0.898284   -0.153390    0.692132
     11          6    20001004        0.219980   -0.480399    1.319274
     12          6    90000002        1.254872   -1.490209    0.884492
     13          6    90000002        2.522113   -0.872705    0.266144
     14          6    90000002        3.606503   -0.575639    1.310541
     15          6    90000002        4.999012   -0.117933    0.804509
     16          6    90000002        5.870063    0.170348    2.038047
     17          7    20001014        5.592311   -1.202640    0.034485
     18          6    20001002        6.757697   -1.033014   -0.655559
     19          6    20001001        7.044630   -2.094310   -1.692924
     20          8    20001024        7.503098   -0.113853   -0.458936
     21          6    20001002        4.806725    1.094012   -0.135140
     22          8    20001024        4.528674    0.925734   -1.291988
     23          7    20001014        4.861810    2.324951    0.417794
     24          6    20001001        4.740695    3.504592   -0.414058
     25          7    20001014       -5.925661   -0.558124    0.709166
     26          6    20001002       -7.113891    0.082160    0.514694
     27          6    20001001       -8.154728   -0.153693    1.589473
     28          8    20001024       -7.319568    0.790448   -0.429851
     29          1    20001035       -4.799797    3.410843   -0.881671
     30          1    20001035       -3.101538    2.970331   -0.968486
     31          1    20001035       -3.772970    3.558594    0.547633
     32          1    20001029       -4.768470    1.490759    0.930731
     33          1    20001034       -4.746037   -1.661307   -2.293557
     34          1    20001034       -5.770829   -2.528949   -1.150469
     35          1    20001034       -6.338180   -1.051616   -1.929094
     36          1    20001034       -4.161813   -2.417082    0.707938
     37          1    20001034       -3.465254   -0.919916    1.252192
     38          1    20001034       -2.002517   -2.648341    0.057518
     39          1    20001034       -2.754728   -2.176805   -1.433402
     40          1    20001034       -1.815758    0.103730   -1.209192
     41          1    20001034       -0.601890   -1.129543   -1.191551
     42          1    20001033       -1.520958    0.597260    1.151386
     43          1    20001033        0.431418    0.027463    2.247246
     44          1    20001034        0.828555   -2.179919    0.166147
     45          1    20001034        1.538050   -2.089517    1.748920
     46          1    20001034        2.890968   -1.561633   -0.488641
     47          1    20001034        2.256925    0.033617   -0.262140
     48          1    20001034        3.774218   -1.461780    1.918948
     49          1    20001034        3.241367    0.195168    1.979034
     50          1    20001034        6.030091   -0.757763    2.574314
     51          1    20001034        5.374941    0.856703    2.717130
     52          1    20001034        6.834121    0.569790    1.760960
     53          1    20001029        4.944236   -1.825081   -0.391282
     54          1    20001034        8.102207   -2.100685   -1.908683
     55          1    20001034        6.505256   -1.844544   -2.601669
     56          1    20001034        6.729477   -3.079600   -1.366939
     57          1    20001029        5.320551    2.430495    1.291709
     58          1    20001035        4.688290    4.375149    0.226493
     59          1    20001035        3.836751    3.444971   -1.002240
     60          1    20001035        5.583300    3.608961   -1.089987
     61          1    20001029       -5.898888   -1.226984    1.446361
     62          1    20001034       -8.868690    0.656720    1.567950
     63          1    20001034       -7.714968   -0.227338    2.577774
     64          1    20001034       -8.678220   -1.081190    1.380888
 ---------------------------------------------------------------------

 SCF Done:  E(RHF) =  -1295.61918603     A.U. after   14 cycles

 The electronic state is 1-A.
 Alpha  occ. eigenvalues --  -20.53603 -20.52057 -20.51772 -20.51613 -15.59560
 Alpha  occ. eigenvalues --  -15.57952 -15.57542 -15.57454 -11.35923 -11.34266
 Alpha  occ. eigenvalues --  -11.33787 -11.33706 -11.28970 -11.28594 -11.25042
 Alpha  occ. eigenvalues --  -11.24797 -11.24323 -11.23947 -11.23531 -11.22633
 Alpha  occ. eigenvalues --  -11.22507 -11.22453 -11.22235 -11.22142 -11.21877
 Alpha  occ. eigenvalues --  -11.21846 -11.21497 -11.20808  -1.40538  -1.39383
 Alpha  occ. eigenvalues --   -1.38631  -1.38107  -1.25380  -1.23570  -1.22661
 Alpha  occ. eigenvalues --   -1.22002  -1.10659  -1.09229  -1.07201  -1.04189
 Alpha  occ. eigenvalues --   -1.01231  -0.99313  -0.98732  -0.95434  -0.95156
 Alpha  occ. eigenvalues --   -0.94610  -0.92055  -0.87206  -0.85646  -0.82689
 Alpha  occ. eigenvalues --   -0.81383  -0.79507  -0.78802  -0.77106  -0.76910
 Alpha  occ. eigenvalues --   -0.71995  -0.71297  -0.71086  -0.68893  -0.68130
 Alpha  occ. eigenvalues --   -0.66429  -0.65781  -0.64523  -0.64006  -0.63749
 Alpha  occ. eigenvalues --   -0.62545  -0.62223  -0.61774  -0.61424  -0.61154
 Alpha  occ. eigenvalues --   -0.60880  -0.59853  -0.59279  -0.58695  -0.58422
 Alpha  occ. eigenvalues --   -0.58209  -0.57732  -0.56635  -0.56307  -0.56133
 Alpha  occ. eigenvalues --   -0.55378  -0.54818  -0.54751  -0.54474  -0.54186
 Alpha  occ. eigenvalues --   -0.52983  -0.52759  -0.52518  -0.52069  -0.51569
 Alpha  occ. eigenvalues --   -0.50979  -0.50106  -0.49822  -0.49312  -0.48752
 Alpha  occ. eigenvalues --   -0.48211  -0.46880  -0.46217  -0.44471  -0.42815
 Alpha  occ. eigenvalues --   -0.41882  -0.41515  -0.41077  -0.39225  -0.38867
 Alpha  occ. eigenvalues --   -0.38313  -0.38236  -0.34380
 Alpha virt. eigenvalues --    0.17450   0.18845   0.19629   0.20041   0.20295
 Alpha virt. eigenvalues --    0.21550   0.22053   0.23102   0.23388   0.24085
 Alpha virt. eigenvalues --    0.25312   0.25658   0.26499   0.26958   0.27650

 Mulliken atomic charges:
              1
     1  C   -0.279868
     2  N   -0.783307
     3  C    0.821875
     4  O   -0.628008
     5  C    0.102381
     6  C   -0.472745
     7  C   -0.334096
     8  C   -0.311833
     9  C   -0.372529
    10  C   -0.178312
    11  C   -0.171471
    12  C   -0.360404
    13  C   -0.317003
    14  C   -0.326349
    15  C    0.090360
    16  C   -0.509508
    17  N   -0.787390
    18  C    0.767247
    19  C   -0.595770
    20  O   -0.613893
    21  C    0.820088
    22  O   -0.638284
    23  N   -0.806597
    24  C   -0.275640
    25  N   -0.843014
    26  C    0.744599
    27  C   -0.588666
    28  O   -0.591691
    29  H    0.186723
    30  H    0.199184
    31  H    0.162292
    32  H    0.391143
    33  H    0.198884
    34  H    0.143801
    35  H    0.212482
    36  H    0.160938
    37  H    0.182287
    38  H    0.163677
    39  H    0.179189
    40  H    0.214115
    41  H    0.173527
    42  H    0.180312
    43  H    0.168132
    44  H    0.176805
    45  H    0.162236
    46  H    0.153235
    47  H    0.206174
    48  H    0.175697
    49  H    0.178740
    50  H    0.183846
    51  H    0.147876
    52  H    0.226867
    53  H    0.389988
    54  H    0.211227
    55  H    0.209921
    56  H    0.176345
    57  H    0.395230
    58  H    0.164266
    59  H    0.199733
    60  H    0.185528
    61  H    0.382488
    62  H    0.218589
    63  H    0.177142
    64  H    0.201210
 Sum of Mulliken atomic charges =   0.00000

 Dipole moment (field-independent basis, Debye):
    X=             -2.3268    Y=             -3.0259    Z=              7.6475  Tot=              8.5472
 Quadrupole moment (field-independent basis, Debye-Ang):
   XX=           -193.3848   YY=           -152.9795   ZZ=           -174.8254
   XY=              9.4992   XZ=            -20.8459   YZ=             10.5986

 Normal termination of Gaussian 09 at Thu Dec  5 18:37:32 2019.
