 Gaussian 09, Revision A.02,
 Gaussian 09:  EM64L-G09RevA.02 11-Jun-2009

 ---------------------------------
 #SP HF/6-31G* Geom=(ModRedundant)
 ---------------------------------

 ------------
 paramfit run
 ------------
 Symbolic Z-matrix:
 Charge =  0 Multiplicity = 1

                         Standard orientation:
 ---------------------------------------------------------------------
 Center     Atomic      Atomic             Coordinates (Angstroms)
 Number     Number       Type             X           Y           Z
 ---------------------------------------------------------------------
      1          6    20001001       -3.281814    2.625313   -1.407121
      2          7    20001014       -3.755463    1.577304   -0.527018
      3          6    20001002       -3.897030    0.315255   -0.995312
      4          8    20001024       -3.439697   -0.037984   -2.046889
      5          6    90000001       -4.562150   -0.696228   -0.044573
      6          6    90000002       -5.065159   -1.900680   -0.847144
      7          6    90000002       -3.561068   -1.128244    1.061230
      8          6    90000002       -2.250261   -1.823797    0.651805
      9          6    90000002       -1.075029   -0.930378    0.207655
     10          6    20001004       -0.660064    0.095704    1.235875
     11          6    20001004        0.341013    0.014641    2.097287
     12          6    90000002        1.316624   -1.125228    2.266503
     13          6    90000002        2.700800   -0.872539    1.642186
     14          6    90000002        2.617663   -0.158853    0.286216
     15          6    90000002        3.940496    0.315424   -0.369393
     16          6    90000002        3.588046    0.935307   -1.731368
     17          7    20001014        4.543418    1.330185    0.483996
     18          6    20001002        5.789627    1.826182    0.230996
     19          6    20001001        6.427040    2.567213    1.383984
     20          8    20001024        6.343418    1.688677   -0.824253
     21          6    20001002        4.908225   -0.886989   -0.449590
     22          8    20001024        5.579067   -1.189337    0.500403
     23          7    20001014        4.887117   -1.628491   -1.578177
     24          6    20001001        5.803997   -2.738244   -1.739356
     25          7    20001014       -5.670938   -0.062716    0.683905
     26          6    20001002       -6.760985    0.485789    0.075126
     27          6    20001001       -7.937294    0.760625    0.988846
     28          8    20001024       -6.786231    0.744441   -1.094746
     29          1    20001035       -3.989217    2.835527   -2.201061
     30          1    20001035       -2.343042    2.330941   -1.852962
     31          1    20001035       -3.125521    3.523216   -0.822574
     32          1    20001029       -4.354270    1.844197    0.218960
     33          1    20001034       -4.263666   -2.361793   -1.403844
     34          1    20001034       -5.493219   -2.633109   -0.169242
     35          1    20001034       -5.820738   -1.592254   -1.554887
     36          1    20001034       -4.107222   -1.822871    1.695603
     37          1    20001034       -3.336735   -0.264349    1.679001
     38          1    20001034       -1.919710   -2.390432    1.517413
     39          1    20001034       -2.444822   -2.552230   -0.128518
     40          1    20001034       -1.321743   -0.425005   -0.717057
     41          1    20001034       -0.243287   -1.586807   -0.022869
     42          1    20001033       -1.256124    0.993753    1.254142
     43          1    20001033        0.491656    0.853637    2.758463
     44          1    20001034        0.911659   -2.033549    1.837058
     45          1    20001034        1.438322   -1.321334    3.331080
     46          1    20001034        3.281521   -0.288907    2.351065
     47          1    20001034        3.221883   -1.814748    1.534739
     48          1    20001034        1.985567    0.721619    0.379791
     49          1    20001034        2.129298   -0.817547   -0.422284
     50          1    20001034        2.993912    1.826094   -1.563783
     51          1    20001034        2.991622    0.254948   -2.330345
     52          1    20001034        4.472787    1.219071   -2.281322
     53          1    20001029        4.308876    1.268117    1.448282
     54          1    20001034        7.197403    3.219640    1.001961
     55          1    20001034        6.883799    1.842180    2.050936
     56          1    20001034        5.702785    3.144091    1.948827
     57          1    20001029        4.516850   -1.221470   -2.404341
     58          1    20001035        5.546535   -3.270269   -2.645768
     59          1    20001035        5.714468   -3.410478   -0.898694
     60          1    20001035        6.834376   -2.403433   -1.802403
     61          1    20001029       -5.794693   -0.364638    1.624689
     62          1    20001034       -8.562082    1.516574    0.535907
     63          1    20001034       -7.624258    1.087291    1.974162
     64          1    20001034       -8.520432   -0.147678    1.101707
 ---------------------------------------------------------------------

 SCF Done:  E(RHF) =  -1295.61826871     A.U. after   14 cycles

 The electronic state is 1-A.
 Alpha  occ. eigenvalues --  -20.53778 -20.52058 -20.51842 -20.51430 -15.59749
 Alpha  occ. eigenvalues --  -15.57757 -15.57720 -15.57270 -11.36094 -11.34062
 Alpha  occ. eigenvalues --  -11.34055 -11.33471 -11.29200 -11.28184 -11.25075
 Alpha  occ. eigenvalues --  -11.24956 -11.24457 -11.24185 -11.22931 -11.22740
 Alpha  occ. eigenvalues --  -11.22552 -11.22442 -11.22390 -11.22268 -11.22199
 Alpha  occ. eigenvalues --  -11.21936 -11.21380 -11.21026  -1.40720  -1.39179
 Alpha  occ. eigenvalues --   -1.38912  -1.37915  -1.25583  -1.23281  -1.22474
 Alpha  occ. eigenvalues --   -1.22263  -1.11010  -1.09269  -1.07055  -1.04260
 Alpha  occ. eigenvalues --   -1.01220  -0.99375  -0.98607  -0.95697  -0.95223
 Alpha  occ. eigenvalues --   -0.94490  -0.92277  -0.87352  -0.85622  -0.82748
 Alpha  occ. eigenvalues --   -0.81298  -0.79258  -0.78958  -0.77364  -0.76684
 Alpha  occ. eigenvalues --   -0.71869  -0.71344  -0.71220  -0.69083  -0.67941
 Alpha  occ. eigenvalues --   -0.66501  -0.66018  -0.64507  -0.64272  -0.63680
 Alpha  occ. eigenvalues --   -0.62828  -0.62541  -0.61567  -0.61316  -0.60969
 Alpha  occ. eigenvalues --   -0.60895  -0.60008  -0.59350  -0.58739  -0.58596
 Alpha  occ. eigenvalues --   -0.58305  -0.57484  -0.56843  -0.56576  -0.55861
 Alpha  occ. eigenvalues --   -0.55595  -0.54971  -0.54710  -0.54614  -0.53677
 Alpha  occ. eigenvalues --   -0.53128  -0.52977  -0.52726  -0.52152  -0.51530
 Alpha  occ. eigenvalues --   -0.51208  -0.50206  -0.49667  -0.49335  -0.48756
 Alpha  occ. eigenvalues --   -0.47452  -0.47121  -0.46327  -0.44791  -0.43016
 Alpha  occ. eigenvalues --   -0.42113  -0.41265  -0.40858  -0.39458  -0.38665
 Alpha  occ. eigenvalues --   -0.38513  -0.38092  -0.34674
 Alpha virt. eigenvalues --    0.17286   0.18678   0.19824   0.19970   0.20093
 Alpha virt. eigenvalues --    0.21873   0.21975   0.23048   0.23244   0.23590
 Alpha virt. eigenvalues --    0.25146   0.25753   0.26499   0.26690   0.27719

 Mulliken atomic charges:
              1
     1  C   -0.279633
     2  N   -0.783453
     3  C    0.822004
     4  O   -0.629376
     5  C    0.102332
     6  C   -0.472682
     7  C   -0.334842
     8  C   -0.311371
     9  C   -0.371079
    10  C   -0.178735
    11  C   -0.182441
    12  C   -0.351893
    13  C   -0.318785
    14  C   -0.329610
    15  C    0.091193
    16  C   -0.509657
    17  N   -0.787133
    18  C    0.767474
    19  C   -0.595499
    20  O   -0.614107
    21  C    0.819264
    22  O   -0.641918
    23  N   -0.806671
    24  C   -0.274831
    25  N   -0.843121
    26  C    0.744481
    27  C   -0.588744
    28  O   -0.591811
    29  H    0.187569
    30  H    0.196788
    31  H    0.163349
    32  H    0.391858
    33  H    0.197922
    34  H    0.144697
    35  H    0.212830
    36  H    0.162325
    37  H    0.182811
    38  H    0.166450
    39  H    0.179063
    40  H    0.211872
    41  H    0.169317
    42  H    0.181780
    43  H    0.170007
    44  H    0.171767
    45  H    0.173286
    46  H    0.147915
    47  H    0.196622
    48  H    0.196568
    49  H    0.177353
    50  H    0.184934
    51  H    0.151157
    52  H    0.224767
    53  H    0.388755
    54  H    0.210748
    55  H    0.208311
    56  H    0.175804
    57  H    0.396764
    58  H    0.165224
    59  H    0.195976
    60  H    0.185123
    61  H    0.382958
    62  H    0.218912
    63  H    0.177496
    64  H    0.201564
 Sum of Mulliken atomic charges =   0.00000

 Dipole moment (field-independent basis, Debye):
    X=             -4.6500    Y=              0.0161    Z=              5.6779  Tot=              7.3391
 Quadrupole moment (field-independent basis, Debye-Ang):
   XX=           -191.3749   YY=           -161.8380   ZZ=           -171.4091
   XY=             -1.2226   XZ=            -29.3258   YZ=             10.5097

 Normal termination of Gaussian 09 at Thu Dec  5 18:31:54 2019.
