 Gaussian 09, Revision A.02,
 Gaussian 09:  EM64L-G09RevA.02 11-Jun-2009

 ---------------------------------
 #SP HF/6-31G* Geom=(ModRedundant)
 ---------------------------------

 ------------
 paramfit run
 ------------
 Symbolic Z-matrix:
 Charge =  0 Multiplicity = 1

                         Standard orientation:
 ---------------------------------------------------------------------
 Center     Atomic      Atomic             Coordinates (Angstroms)
 Number     Number       Type             X           Y           Z
 ---------------------------------------------------------------------
      1          6    20001001        3.878696    2.605917   -1.518368
      2          7    20001014        4.174905    1.261746   -1.068135
      3          6    20001002        4.152703    0.972442    0.253954
      4          8    20001024        3.682043    1.716160    1.069496
      5          6    90000001        4.641418   -0.431001    0.655065
      6          6    90000002        4.994956   -0.444560    2.145927
      7          6    90000002        3.557323   -1.490743    0.318483
      8          6    90000002        2.175001   -1.383664    0.987330
      9          6    90000002        1.149823   -0.418199    0.360014
     10          6    20001004        0.851796   -0.698020   -1.094345
     11          6    20001004       -0.176000   -1.365894   -1.592680
     12          6    90000002       -1.305853   -2.015159   -0.830028
     13          6    90000002       -2.621955   -1.216914   -0.845746
     14          6    90000002       -3.217701   -1.029263    0.555963
     15          6    90000002       -4.445897   -0.094572    0.706070
     16          6    90000002       -4.879347   -0.129897    2.180629
     17          7    20001014       -4.044370    1.259711    0.350792
     18          6    20001002       -4.955788    2.270900    0.251426
     19          6    20001001       -4.467594    3.499475   -0.481430
     20          8    20001024       -6.062350    2.197551    0.708899
     21          6    20001002       -5.536825   -0.552655   -0.288294
     22          8    20001024       -5.501805   -0.192939   -1.434290
     23          7    20001014       -6.451580   -1.440722    0.157284
     24          6    20001001       -7.530784   -1.872422   -0.707098
     25          7    20001014        5.805625   -0.819336   -0.154410
     26          6    20001002        6.979240   -0.125135   -0.174035
     27          6    20001001        8.154662   -0.866405   -0.776548
     28          8    20001024        7.075196    0.994350    0.242720
     29          1    20001035        4.631855    3.314906   -1.194278
     30          1    20001035        2.921711    2.919156   -1.127493
     31          1    20001035        3.832000    2.605700   -2.600113
     32          1    20001029        4.782632    0.715324   -1.632384
     33          1    20001034        4.153856   -0.140182    2.749945
     34          1    20001034        5.296141   -1.446573    2.436607
     35          1    20001034        5.806946    0.239129    2.346344
     36          1    20001034        3.981969   -2.447894    0.613031
     37          1    20001034        3.437546   -1.530150   -0.759654
     38          1    20001034        1.742916   -2.379770    0.961006
     39          1    20001034        2.289072   -1.132589    2.036769
     40          1    20001034        1.492135    0.603569    0.460883
     41          1    20001034        0.241791   -0.488964    0.948490
     42          1    20001033        1.566629   -0.296814   -1.794459
     43          1    20001033       -0.227613   -1.462428   -2.665890
     44          1    20001034       -1.019109   -2.175948    0.202150
     45          1    20001034       -1.485401   -3.003170   -1.252154
     46          1    20001034       -2.420347   -0.256377   -1.311682
     47          1    20001034       -3.335019   -1.715890   -1.488702
     48          1    20001034       -2.451614   -0.643542    1.225188
     49          1    20001034       -3.506897   -1.999697    0.941935
     50          1    20001034       -4.090529    0.303227    2.784576
     51          1    20001034       -5.027770   -1.148995    2.522376
     52          1    20001034       -5.781180    0.440563    2.344983
     53          1    20001029       -3.281912    1.323772   -0.284242
     54          1    20001034       -5.074689    4.345280   -0.196631
     55          1    20001034       -4.580418    3.333329   -1.548572
     56          1    20001034       -3.423647    3.709698   -0.275615
     57          1    20001029       -6.593385   -1.522298    1.136338
     58          1    20001035       -8.074723   -2.665413   -0.210897
     59          1    20001035       -7.126423   -2.249544   -1.634944
     60          1    20001035       -8.213256   -1.060145   -0.935551
     61          1    20001029        5.857923   -1.783843   -0.396357
     62          1    20001034        8.892118   -0.146766   -1.100974
     63          1    20001034        7.861112   -1.491264   -1.612567
     64          1    20001034        8.601603   -1.501562   -0.018510
 ---------------------------------------------------------------------

 SCF Done:  E(RHF) =  -1295.61748669     A.U. after   14 cycles

 The electronic state is 1-A.
 Alpha  occ. eigenvalues --  -20.53716 -20.51973 -20.51868 -20.51639 -15.59684
 Alpha  occ. eigenvalues --  -15.58000 -15.57631 -15.57332 -11.36032 -11.34065
 Alpha  occ. eigenvalues --  -11.33978 -11.33718 -11.29130 -11.28509 -11.25164
 Alpha  occ. eigenvalues --  -11.24988 -11.24402 -11.24113 -11.23550 -11.22857
 Alpha  occ. eigenvalues --  -11.22400 -11.22302 -11.22255 -11.22138 -11.22009
 Alpha  occ. eigenvalues --  -11.21844 -11.21719 -11.20966  -1.40656  -1.39302
 Alpha  occ. eigenvalues --   -1.38828  -1.38030  -1.25515  -1.23400  -1.22701
 Alpha  occ. eigenvalues --   -1.22177  -1.10784  -1.09266  -1.07269  -1.04252
 Alpha  occ. eigenvalues --   -1.01309  -0.99404  -0.98581  -0.95616  -0.95323
 Alpha  occ. eigenvalues --   -0.94687  -0.92038  -0.87294  -0.85619  -0.82574
 Alpha  occ. eigenvalues --   -0.81570  -0.79413  -0.79033  -0.77280  -0.76854
 Alpha  occ. eigenvalues --   -0.72049  -0.71368  -0.71255  -0.69033  -0.67665
 Alpha  occ. eigenvalues --   -0.66835  -0.65955  -0.64653  -0.64111  -0.63834
 Alpha  occ. eigenvalues --   -0.62712  -0.62473  -0.61635  -0.61276  -0.61163
 Alpha  occ. eigenvalues --   -0.61001  -0.59940  -0.59391  -0.58687  -0.58427
 Alpha  occ. eigenvalues --   -0.58246  -0.57710  -0.57024  -0.56600  -0.55777
 Alpha  occ. eigenvalues --   -0.55488  -0.54962  -0.54641  -0.54437  -0.53870
 Alpha  occ. eigenvalues --   -0.53424  -0.52893  -0.52588  -0.51908  -0.51567
 Alpha  occ. eigenvalues --   -0.51131  -0.50129  -0.49660  -0.49278  -0.48703
 Alpha  occ. eigenvalues --   -0.47922  -0.47083  -0.46712  -0.44686  -0.42950
 Alpha  occ. eigenvalues --   -0.42042  -0.41465  -0.40902  -0.39384  -0.38824
 Alpha  occ. eigenvalues --   -0.38424  -0.38293  -0.34532
 Alpha virt. eigenvalues --    0.17583   0.18743   0.19593   0.19913   0.20219
 Alpha virt. eigenvalues --    0.21525   0.21737   0.23186   0.23610   0.23694
 Alpha virt. eigenvalues --    0.25144   0.25169   0.26279   0.27041   0.27567

 Mulliken atomic charges:
              1
     1  C   -0.279510
     2  N   -0.783185
     3  C    0.821974
     4  O   -0.629268
     5  C    0.102355
     6  C   -0.472678
     7  C   -0.334614
     8  C   -0.310852
     9  C   -0.372789
    10  C   -0.183269
    11  C   -0.176744
    12  C   -0.357821
    13  C   -0.316226
    14  C   -0.333296
    15  C    0.090407
    16  C   -0.510173
    17  N   -0.786906
    18  C    0.767027
    19  C   -0.596157
    20  O   -0.615033
    21  C    0.818844
    22  O   -0.639050
    23  N   -0.806940
    24  C   -0.274957
    25  N   -0.843033
    26  C    0.744519
    27  C   -0.588753
    28  O   -0.591823
    29  H    0.187266
    30  H    0.196629
    31  H    0.163636
    32  H    0.391867
    33  H    0.198024
    34  H    0.144322
    35  H    0.212789
    36  H    0.161789
    37  H    0.183515
    38  H    0.165262
    39  H    0.178472
    40  H    0.212146
    41  H    0.167645
    42  H    0.181415
    43  H    0.175043
    44  H    0.170130
    45  H    0.171922
    46  H    0.166116
    47  H    0.194030
    48  H    0.182079
    49  H    0.177104
    50  H    0.186458
    51  H    0.147192
    52  H    0.227042
    53  H    0.393048
    54  H    0.210759
    55  H    0.208160
    56  H    0.180129
    57  H    0.395982
    58  H    0.164560
    59  H    0.196648
    60  H    0.186086
    61  H    0.382883
    62  H    0.218857
    63  H    0.177590
    64  H    0.201355
 Sum of Mulliken atomic charges =   0.00000

 Dipole moment (field-independent basis, Debye):
    X=              3.3101    Y=             -6.7012    Z=             -1.8229  Tot=              7.6932
 Quadrupole moment (field-independent basis, Debye-Ang):
   XX=           -176.8902   YY=           -167.5494   ZZ=           -171.7127
   XY=             -8.7414   XZ=            -25.1705   YZ=            -11.5424

 Normal termination of Gaussian 09 at Thu Dec  5 18:43:20 2019.
