 Gaussian 09, Revision A.02,
 Gaussian 09:  EM64L-G09RevA.02 11-Jun-2009

 ---------------------------------
 #SP HF/6-31G* Geom=(ModRedundant)
 ---------------------------------

 ------------
 paramfit run
 ------------
 Symbolic Z-matrix:
 Charge =  0 Multiplicity = 1

                         Standard orientation:
 ---------------------------------------------------------------------
 Center     Atomic      Atomic             Coordinates (Angstroms)
 Number     Number       Type             X           Y           Z
 ---------------------------------------------------------------------
      1          6    20001001        3.649365    2.928960   -0.588495
      2          7    20001014        4.007668    1.525805   -0.583994
      3          6    20001002        4.006009    0.832434    0.578479
      4          8    20001024        3.507466    1.258479    1.583310
      5          6    90000001        4.558977   -0.602874    0.519287
      6          6    90000002        4.921392   -1.071794    1.932302
      7          6    90000002        3.521158   -1.548355   -0.144491
      8          6    90000002        2.139337   -1.719329    0.511995
      9          6    90000002        1.068618   -0.651115    0.213470
     10          6    20001004        0.774916   -0.469312   -1.257232
     11          6    20001004       -0.225025   -0.989801   -1.950028
     12          6    90000002       -1.320448   -1.896064   -1.441611
     13          6    90000002       -2.670820   -1.192597   -1.215345
     14          6    90000002       -2.918377   -0.845804    0.258889
     15          6    90000002       -4.156359    0.021524    0.604994
     16          6    90000002       -4.207875    0.168603    2.134427
     17          7    20001014       -3.987766    1.334246   -0.003173
     18          6    20001002       -4.989093    2.261682    0.013057
     19          6    20001001       -4.817715    3.402092   -0.964134
     20          8    20001024       -5.936478    2.184473    0.744932
     21          6    20001002       -5.408884   -0.640814   -0.012432
     22          8    20001024       -5.692115   -0.445894   -1.163829
     23          7    20001014       -6.095330   -1.512474    0.757621
     24          6    20001001       -7.307100   -2.129563    0.258602
     25          7    20001014        5.734598   -0.663539   -0.361431
     26          6    20001002        6.876042    0.052176   -0.150407
     27          6    20001001        8.079762   -0.407916   -0.946329
     28          8    20001024        6.924522    0.985406    0.599840
     29          1    20001035        4.372109    3.531444   -0.050346
     30          1    20001035        2.681674    3.060009   -0.126843
     31          1    20001035        3.596464    3.268909   -1.615135
     32          1    20001029        4.635820    1.213259   -1.286863
     33          1    20001034        4.071098   -1.011468    2.594340
     34          1    20001034        5.268524   -2.100019    1.893711
     35          1    20001034        5.703317   -0.451572    2.345636
     36          1    20001034        3.989653   -2.529857   -0.164165
     37          1    20001034        3.397013   -1.249902   -1.180731
     38          1    20001034        1.751838   -2.673954    0.168259
     39          1    20001034        2.248201   -1.808374    1.587910
     40          1    20001034        1.365723    0.300293    0.635268
     41          1    20001034        0.168054   -0.944313    0.741536
     42          1    20001033        1.467133    0.163829   -1.788345
     43          1    20001033       -0.278505   -0.744041   -2.999077
     44          1    20001034       -1.020866   -2.362337   -0.510855
     45          1    20001034       -1.458315   -2.706687   -2.156087
     46          1    20001034       -2.684137   -0.297139   -1.830447
     47          1    20001034       -3.468463   -1.821668   -1.587993
     48          1    20001034       -2.052166   -0.321547    0.656841
     49          1    20001034       -3.008257   -1.767902    0.821033
     50          1    20001034       -3.340407    0.731854    2.458198
     51          1    20001034       -4.168175   -0.798983    2.623900
     52          1    20001034       -5.092346    0.698685    2.454526
     53          1    20001029       -3.415042    1.355413   -0.815732
     54          1    20001034       -5.414959    4.239833   -0.637714
     55          1    20001034       -5.173182    3.079409   -1.938118
     56          1    20001034       -3.780651    3.704707   -1.060590
     57          1    20001029       -5.983118   -1.463043    1.742646
     58          1    20001035       -7.632689   -2.876767    0.970361
     59          1    20001035       -7.109085   -2.608330   -0.689131
     60          1    20001035       -8.100161   -1.402529    0.116373
     61          1    20001029        5.828341   -1.498683   -0.895561
     62          1    20001034        8.782590    0.409126   -1.020145
     63          1    20001034        7.809459   -0.748493   -1.939553
     64          1    20001034        8.558892   -1.229933   -0.424291
 ---------------------------------------------------------------------

 SCF Done:  E(RHF) =  -1295.61878231     A.U. after   14 cycles

 The electronic state is 1-A.
 Alpha  occ. eigenvalues --  -20.53740 -20.52001 -20.51845 -20.51592 -15.59709
 Alpha  occ. eigenvalues --  -15.57939 -15.57665 -15.57291 -11.36056 -11.34050
 Alpha  occ. eigenvalues --  -11.34007 -11.33656 -11.29158 -11.28417 -11.25116
 Alpha  occ. eigenvalues --  -11.25023 -11.24424 -11.24144 -11.23377 -11.22888
 Alpha  occ. eigenvalues --  -11.22457 -11.22374 -11.22304 -11.22211 -11.22116
 Alpha  occ. eigenvalues --  -11.21871 -11.21591 -11.20991  -1.40681  -1.39264
 Alpha  occ. eigenvalues --   -1.38856  -1.37996  -1.25541  -1.23350  -1.22644
 Alpha  occ. eigenvalues --   -1.22210  -1.10859  -1.09260  -1.07227  -1.04259
 Alpha  occ. eigenvalues --   -1.01298  -0.99418  -0.98589  -0.95649  -0.95339
 Alpha  occ. eigenvalues --   -0.94637  -0.92080  -0.87313  -0.85601  -0.82596
 Alpha  occ. eigenvalues --   -0.81564  -0.79372  -0.79052  -0.77312  -0.76802
 Alpha  occ. eigenvalues --   -0.72100  -0.71348  -0.71284  -0.69065  -0.67850
 Alpha  occ. eigenvalues --   -0.66562  -0.65968  -0.64529  -0.64071  -0.63913
 Alpha  occ. eigenvalues --   -0.62709  -0.62447  -0.61714  -0.61298  -0.61088
 Alpha  occ. eigenvalues --   -0.60987  -0.60033  -0.59324  -0.58757  -0.58493
 Alpha  occ. eigenvalues --   -0.58283  -0.57567  -0.56915  -0.56716  -0.55781
 Alpha  occ. eigenvalues --   -0.55392  -0.54868  -0.54745  -0.54562  -0.54122
 Alpha  occ. eigenvalues --   -0.53288  -0.52912  -0.52641  -0.51907  -0.51603
 Alpha  occ. eigenvalues --   -0.51160  -0.50033  -0.49684  -0.49214  -0.48563
 Alpha  occ. eigenvalues --   -0.48144  -0.47119  -0.46405  -0.44928  -0.42976
 Alpha  occ. eigenvalues --   -0.42068  -0.41407  -0.40872  -0.39411  -0.38775
 Alpha  occ. eigenvalues --   -0.38456  -0.38233  -0.34641
 Alpha virt. eigenvalues --    0.17594   0.18715   0.19725   0.19892   0.20164
 Alpha virt. eigenvalues --    0.21633   0.21947   0.23201   0.23405   0.24081
 Alpha virt. eigenvalues --    0.25327   0.25584   0.26371   0.27105   0.27304

 Mulliken atomic charges:
              1
     1  C   -0.279664
     2  N   -0.783349
     3  C    0.821933
     4  O   -0.629050
     5  C    0.102386
     6  C   -0.472673
     7  C   -0.334845
     8  C   -0.310686
     9  C   -0.374095
    10  C   -0.182972
    11  C   -0.178637
    12  C   -0.357190
    13  C   -0.313532
    14  C   -0.335897
    15  C    0.091052
    16  C   -0.510711
    17  N   -0.786075
    18  C    0.767403
    19  C   -0.595983
    20  O   -0.614797
    21  C    0.819073
    22  O   -0.639999
    23  N   -0.806966
    24  C   -0.274911
    25  N   -0.843085
    26  C    0.744487
    27  C   -0.588747
    28  O   -0.591787
    29  H    0.187481
    30  H    0.197055
    31  H    0.163138
    32  H    0.391818
    33  H    0.197971
    34  H    0.144406
    35  H    0.212853
    36  H    0.161993
    37  H    0.183216
    38  H    0.165526
    39  H    0.178557
    40  H    0.212543
    41  H    0.168930
    42  H    0.181422
    43  H    0.173907
    44  H    0.169814
    45  H    0.174496
    46  H    0.158569
    47  H    0.193507
    48  H    0.190859
    49  H    0.175797
    50  H    0.188453
    51  H    0.147241
    52  H    0.226461
    53  H    0.392163
    54  H    0.210839
    55  H    0.207751
    56  H    0.178605
    57  H    0.396200
    58  H    0.164612
    59  H    0.196503
    60  H    0.185856
    61  H    0.382916
    62  H    0.218875
    63  H    0.177553
    64  H    0.201433
 Sum of Mulliken atomic charges =   0.00000

 Dipole moment (field-independent basis, Debye):
    X=              3.9873    Y=             -5.0606    Z=             -3.5394  Tot=              7.3509
 Quadrupole moment (field-independent basis, Debye-Ang):
   XX=           -181.4326   YY=           -164.1207   ZZ=           -173.1840
   XY=             -5.4543   XZ=            -31.7466   YZ=            -14.9139

 Normal termination of Gaussian 09 at Thu Dec  5 19:00:00 2019.
