 Gaussian 09, Revision A.02,
 Gaussian 09:  EM64L-G09RevA.02 11-Jun-2009

 ---------------------------------
 #SP HF/6-31G* Geom=(ModRedundant)
 ---------------------------------

 ------------
 paramfit run
 ------------
 Symbolic Z-matrix:
 Charge =  0 Multiplicity = 1

                         Standard orientation:
 ---------------------------------------------------------------------
 Center     Atomic      Atomic             Coordinates (Angstroms)
 Number     Number       Type             X           Y           Z
 ---------------------------------------------------------------------
      1          6    20001001       -3.297916    1.208976    2.701585
      2          7    20001014       -3.769827    0.389418    1.604831
      3          6    20001002       -3.978443    0.944845    0.388241
      4          8    20001024       -3.581926    2.040703    0.102557
      5          6    90000001       -4.637001    0.043077   -0.671241
      6          6    90000002       -5.219307    0.909916   -1.792558
      7          6    90000002       -3.603941   -0.978011   -1.220578
      8          6    90000002       -2.339193   -0.455259   -1.925403
      9          6    90000002       -1.153029   -0.024883   -1.039724
     10          6    20001004       -0.655063   -1.107116   -0.110703
     11          6    20001004        0.379930   -1.911414   -0.291403
     12          6    90000002        1.319647   -1.947187   -1.472675
     13          6    90000002        2.682821   -1.278850   -1.218417
     14          6    90000002        2.722367   -0.497417    0.101702
     15          6    90000002        4.085567    0.076239    0.567804
     16          6    90000002        3.840511    0.857819    1.868778
     17          7    20001014        4.990209   -1.034292    0.832142
     18          6    20001002        6.308372   -0.827443    1.119747
     19          6    20001001        7.187979   -2.050197    0.993371
     20          8    20001024        6.743237    0.241048    1.448929
     21          6    20001002        4.680955    0.923014   -0.579893
     22          8    20001024        5.295553    0.394558   -1.466985
     23          7    20001014        4.394328    2.242733   -0.592809
     24          6    20001001        4.961724    3.102701   -1.611002
     25          7    20001014       -5.688061   -0.783155   -0.059650
     26          6    20001002       -6.783407   -0.270156    0.570208
     27          6    20001001       -7.906743   -1.256884    0.812287
     28          8    20001024       -6.851499    0.874206    0.919403
     29          1    20001035       -4.031966    1.950213    2.996012
     30          1    20001035       -2.391485    1.719911    2.411671
     31          1    20001035       -3.082757    0.566083    3.545830
     32          1    20001029       -4.324433   -0.402231    1.832841
     33          1    20001034       -4.461008    1.537398   -2.235481
     34          1    20001034       -5.643176    0.269975   -2.560703
     35          1    20001034       -5.993988    1.555567   -1.405349
     36          1    20001034       -4.146268   -1.583071   -1.943768
     37          1    20001034       -3.320617   -1.648186   -0.415051
     38          1    20001034       -1.991234   -1.258727   -2.568040
     39          1    20001034       -2.595101    0.367954   -2.584346
     40          1    20001034       -1.422186    0.846077   -0.456332
     41          1    20001034       -0.357096    0.293981   -1.703538
     42          1    20001033       -1.216346   -1.221717    0.802501
     43          1    20001033        0.590717   -2.626428    0.488394
     44          1    20001034        0.862795   -1.469786   -2.331070
     45          1    20001034        1.481610   -2.986844   -1.754589
     46          1    20001034        3.439980   -2.057932   -1.229107
     47          1    20001034        2.919093   -0.622686   -2.045735
     48          1    20001034        2.361823   -1.132449    0.908098
     49          1    20001034        2.033349    0.336045    0.031374
     50          1    20001034        3.523394    0.162150    2.636933
     51          1    20001034        3.047954    1.588508    1.744983
     52          1    20001034        4.736840    1.352564    2.211648
     53          1    20001029        4.802112   -1.866154    0.320931
     54          1    20001034        8.084863   -1.901909    1.575324
     55          1    20001034        7.465402   -2.170445   -0.049560
     56          1    20001034        6.682250   -2.952421    1.319886
     57          1    20001029        4.103934    2.671694    0.253934
     58          1    20001035        4.517990    4.085402   -1.519791
     59          1    20001035        4.738840    2.704935   -2.590149
     60          1    20001035        6.039178    3.186997   -1.512300
     61          1    20001029       -5.780566   -1.703138   -0.429275
     62          1    20001034       -8.523020   -0.892755    1.621352
     63          1    20001034       -7.538126   -2.248171    1.051082
     64          1    20001034       -8.517186   -1.328072   -0.082192
 ---------------------------------------------------------------------

 SCF Done:  E(RHF) =  -1295.61261471     A.U. after   14 cycles

 The electronic state is 1-A.
 Alpha  occ. eigenvalues --  -20.53756 -20.52031 -20.51893 -20.51435 -15.59722
 Alpha  occ. eigenvalues --  -15.57742 -15.57703 -15.57326 -11.36072 -11.34103
 Alpha  occ. eigenvalues --  -11.34035 -11.33489 -11.29162 -11.28203 -11.25084
 Alpha  occ. eigenvalues --  -11.24904 -11.24441 -11.24132 -11.22898 -11.22853
 Alpha  occ. eigenvalues --  -11.22454 -11.22432 -11.22377 -11.22192 -11.22065
 Alpha  occ. eigenvalues --  -11.21851 -11.21481 -11.20985  -1.40698  -1.39208
 Alpha  occ. eigenvalues --   -1.38886  -1.37939  -1.25555  -1.23335  -1.22460
 Alpha  occ. eigenvalues --   -1.22246  -1.10990  -1.09291  -1.07029  -1.04251
 Alpha  occ. eigenvalues --   -1.01180  -0.99322  -0.98643  -0.95688  -0.95118
 Alpha  occ. eigenvalues --   -0.94470  -0.92356  -0.87346  -0.85679  -0.82891
 Alpha  occ. eigenvalues --   -0.81249  -0.79303  -0.78800  -0.77344  -0.76702
 Alpha  occ. eigenvalues --   -0.71678  -0.71338  -0.71220  -0.69055  -0.67810
 Alpha  occ. eigenvalues --   -0.66909  -0.66009  -0.64554  -0.64119  -0.63519
 Alpha  occ. eigenvalues --   -0.62842  -0.62551  -0.61463  -0.61336  -0.61068
 Alpha  occ. eigenvalues --   -0.60786  -0.59855  -0.59473  -0.58756  -0.58548
 Alpha  occ. eigenvalues --   -0.58301  -0.57617  -0.56646  -0.56586  -0.56084
 Alpha  occ. eigenvalues --   -0.55641  -0.54998  -0.54717  -0.54633  -0.53499
 Alpha  occ. eigenvalues --   -0.53356  -0.52968  -0.52732  -0.52274  -0.51489
 Alpha  occ. eigenvalues --   -0.51170  -0.50481  -0.49660  -0.49286  -0.48681
 Alpha  occ. eigenvalues --   -0.47170  -0.46742  -0.46442  -0.44588  -0.42990
 Alpha  occ. eigenvalues --   -0.42083  -0.41289  -0.40893  -0.39432  -0.38688
 Alpha  occ. eigenvalues --   -0.38495  -0.38099  -0.34611
 Alpha virt. eigenvalues --    0.17397   0.18698   0.19843   0.19921   0.20131
 Alpha virt. eigenvalues --    0.21314   0.22076   0.23060   0.23320   0.23387
 Alpha virt. eigenvalues --    0.25091   0.25530   0.26309   0.26872   0.27595

 Mulliken atomic charges:
              1
     1  C   -0.279309
     2  N   -0.783324
     3  C    0.822093
     4  O   -0.629312
     5  C    0.102239
     6  C   -0.472721
     7  C   -0.334698
     8  C   -0.311401
     9  C   -0.371521
    10  C   -0.180126
    11  C   -0.184646
    12  C   -0.352480
    13  C   -0.323655
    14  C   -0.324826
    15  C    0.091848
    16  C   -0.509599
    17  N   -0.787600
    18  C    0.767565
    19  C   -0.595496
    20  O   -0.614067
    21  C    0.819505
    22  O   -0.641717
    23  N   -0.806036
    24  C   -0.275086
    25  N   -0.843116
    26  C    0.744499
    27  C   -0.588726
    28  O   -0.591909
    29  H    0.187468
    30  H    0.196148
    31  H    0.163217
    32  H    0.391843
    33  H    0.198275
    34  H    0.144667
    35  H    0.212641
    36  H    0.162113
    37  H    0.182757
    38  H    0.166183
    39  H    0.179299
    40  H    0.211073
    41  H    0.170134
    42  H    0.180362
    43  H    0.171381
    44  H    0.177275
    45  H    0.171383
    46  H    0.152183
    47  H    0.198807
    48  H    0.181817
    49  H    0.187410
    50  H    0.182869
    51  H    0.151138
    52  H    0.225132
    53  H    0.388407
    54  H    0.210803
    55  H    0.208664
    56  H    0.175570
    57  H    0.396616
    58  H    0.166187
    59  H    0.196331
    60  H    0.184730
    61  H    0.382925
    62  H    0.218807
    63  H    0.177439
    64  H    0.201571
 Sum of Mulliken atomic charges =   0.00000

 Dipole moment (field-independent basis, Debye):
    X=             -4.2478    Y=             -6.2346    Z=              0.2841  Tot=              7.5495
 Quadrupole moment (field-independent basis, Debye-Ang):
   XX=           -193.1739   YY=           -163.3848   ZZ=           -169.4946
   XY=             24.2514   XZ=              3.6561   YZ=             -3.7172

 Normal termination of Gaussian 09 at Thu Dec  5 18:48:52 2019.
