 Gaussian 09, Revision A.02,
 Gaussian 09:  EM64L-G09RevA.02 11-Jun-2009

 ---------------------------------
 #SP HF/6-31G* Geom=(ModRedundant)
 ---------------------------------

 ------------
 paramfit run
 ------------
 Symbolic Z-matrix:
 Charge =  0 Multiplicity = 1

                         Standard orientation:
 ---------------------------------------------------------------------
 Center     Atomic      Atomic             Coordinates (Angstroms)
 Number     Number       Type             X           Y           Z
 ---------------------------------------------------------------------
      1          6    20001001       -4.165271   -1.411082    2.736870
      2          7    20001014       -4.410936   -1.009045    1.367468
      3          6    20001002       -4.466539    0.305460    1.049515
      4          8    20001024       -4.101941    1.167110    1.800763
      5          6    90000001       -4.896711    0.643290   -0.389307
      6          6    90000002       -5.355298    2.103697   -0.458231
      7          6    90000002       -3.728794    0.367315   -1.374908
      8          6    90000002       -2.407338    1.137614   -1.201617
      9          6    90000002       -1.400177    0.605361   -0.162881
     10          6    20001004       -0.981657   -0.828214   -0.390875
     11          6    20001004        0.118058   -1.262265   -0.984998
     12          6    90000002        1.227366   -0.431113   -1.583644
     13          6    90000002        2.490237   -0.335322   -0.708688
     14          6    90000002        3.772417   -0.169371   -1.535362
     15          6    90000002        5.095031    0.117176   -0.778245
     16          6    90000002        6.223625    0.176716   -1.820447
     17          7    20001014        4.979150    1.408459   -0.114400
     18          6    20001002        5.938999    1.856510    0.746412
     19          6    20001001        5.514219    3.004269    1.633552
     20          8    20001024        7.038889    1.380616    0.800329
     21          6    20001002        5.286685   -0.968542    0.304903
     22          8    20001024        4.744467   -0.862320    1.371977
     23          7    20001014        5.992103   -2.068909   -0.035040
     24          6    20001001        6.252363   -3.101102    0.947325
     25          7    20001014       -5.973798   -0.256509   -0.827116
     26          6    20001002       -7.182953   -0.349133   -0.203387
     27          6    20001001       -8.264676   -1.049998   -0.998863
     28          8    20001024       -7.376539    0.080365    0.898518
     29          1    20001035       -4.981514   -1.129867    3.392321
     30          1    20001035       -3.259751   -0.945284    3.097132
     31          1    20001035       -4.040808   -2.486304    2.764416
     32          1    20001029       -4.942089   -1.626477    0.799190
     33          1    20001034       -4.579971    2.773363   -0.118602
     34          1    20001034       -5.615208    2.352685   -1.482774
     35          1    20001034       -6.219659    2.256806    0.171343
     36          1    20001034       -4.114618    0.611946   -2.362083
     37          1    20001034       -3.529453   -0.699685   -1.382227
     38          1    20001034       -1.914754    1.124389   -2.169503
     39          1    20001034       -2.611791    2.180383   -0.982057
     40          1    20001034       -1.810318    0.699983    0.834211
     41          1    20001034       -0.534301    1.257409   -0.193312
     42          1    20001033       -1.667227   -1.571222   -0.016648
     43          1    20001033        0.252655   -2.330420   -1.053481
     44          1    20001034        0.877278    0.574065   -1.784944
     45          1    20001034        1.496571   -0.857373   -2.549265
     46          1    20001034        2.358188    0.501305   -0.028253
     47          1    20001034        2.561345   -1.217283   -0.085858
     48          1    20001034        3.640732    0.643142   -2.246709
     49          1    20001034        3.927588   -1.069799   -2.118029
     50          1    20001034        6.052487    1.028085   -2.468877
     51          1    20001034        6.229581   -0.710926   -2.444498
     52          1    20001034        7.190388    0.296810   -1.354956
     53          1    20001029        4.052470    1.685991    0.115712
     54          1    20001034        6.393163    3.520813    1.988096
     55          1    20001034        4.978703    2.601262    2.487914
     56          1    20001034        4.861791    3.699808    1.116884
     57          1    20001029        6.609253   -2.013863   -0.810542
     58          1    20001035        6.719815   -3.941022    0.450391
     59          1    20001035        5.322302   -3.426508    1.389734
     60          1    20001035        6.903889   -2.747584    1.739974
     61          1    20001029       -5.949820   -0.519668   -1.787178
     62          1    20001034       -9.019193   -1.414088   -0.316869
     63          1    20001034       -7.874212   -1.873801   -1.585751
     64          1    20001034       -8.725666   -0.338808   -1.676727
 ---------------------------------------------------------------------

 SCF Done:  E(RHF) =  -1295.62047868     A.U. after   14 cycles

 The electronic state is 1-A.
 Alpha  occ. eigenvalues --  -20.53611 -20.52015 -20.51792 -20.51665 -15.59574
 Alpha  occ. eigenvalues --  -15.58032 -15.57511 -15.57442 -11.35931 -11.34214
 Alpha  occ. eigenvalues --  -11.33804 -11.33753 -11.29000 -11.28617 -11.25168
 Alpha  occ. eigenvalues --  -11.24743 -11.24322 -11.23988 -11.23576 -11.22711
 Alpha  occ. eigenvalues --  -11.22489 -11.22405 -11.22269 -11.22134 -11.21852
 Alpha  occ. eigenvalues --  -11.21845 -11.21621 -11.20854  -1.40546  -1.39385
 Alpha  occ. eigenvalues --   -1.38650  -1.38115  -1.25393  -1.23550  -1.22738
 Alpha  occ. eigenvalues --   -1.21993  -1.10646  -1.09237  -1.07247  -1.04210
 Alpha  occ. eigenvalues --   -1.01269  -0.99339  -0.98688  -0.95412  -0.95248
 Alpha  occ. eigenvalues --   -0.94687  -0.91972  -0.87217  -0.85612  -0.82529
 Alpha  occ. eigenvalues --   -0.81472  -0.79508  -0.78916  -0.77102  -0.76944
 Alpha  occ. eigenvalues --   -0.72056  -0.71376  -0.71125  -0.68917  -0.68042
 Alpha  occ. eigenvalues --   -0.66480  -0.65822  -0.64602  -0.64232  -0.63654
 Alpha  occ. eigenvalues --   -0.62703  -0.62350  -0.61584  -0.61293  -0.61218
 Alpha  occ. eigenvalues --   -0.60793  -0.59754  -0.59353  -0.58697  -0.58399
 Alpha  occ. eigenvalues --   -0.58230  -0.57706  -0.56936  -0.56301  -0.55932
 Alpha  occ. eigenvalues --   -0.55511  -0.55062  -0.54726  -0.54393  -0.53863
 Alpha  occ. eigenvalues --   -0.52803  -0.52771  -0.52464  -0.51998  -0.51751
 Alpha  occ. eigenvalues --   -0.51010  -0.50012  -0.49728  -0.49285  -0.48862
 Alpha  occ. eigenvalues --   -0.48029  -0.47063  -0.46612  -0.44633  -0.42832
 Alpha  occ. eigenvalues --   -0.41904  -0.41530  -0.41032  -0.39240  -0.38900
 Alpha  occ. eigenvalues --   -0.38354  -0.38231  -0.34346
 Alpha virt. eigenvalues --    0.17739   0.18843   0.19623   0.20039   0.20332
 Alpha virt. eigenvalues --    0.21470   0.21613   0.22781   0.23415   0.24199
 Alpha virt. eigenvalues --    0.25475   0.25803   0.26222   0.27028   0.27863

 Mulliken atomic charges:
              1
     1  C   -0.280111
     2  N   -0.783097
     3  C    0.821904
     4  O   -0.628802
     5  C    0.102450
     6  C   -0.472618
     7  C   -0.334242
     8  C   -0.311494
     9  C   -0.370390
    10  C   -0.179909
    11  C   -0.170998
    12  C   -0.351381
    13  C   -0.316808
    14  C   -0.328167
    15  C    0.090604
    16  C   -0.509440
    17  N   -0.787264
    18  C    0.766902
    19  C   -0.595680
    20  O   -0.614372
    21  C    0.819479
    22  O   -0.637212
    23  N   -0.807239
    24  C   -0.275243
    25  N   -0.842936
    26  C    0.744620
    27  C   -0.588708
    28  O   -0.591665
    29  H    0.186476
    30  H    0.199390
    31  H    0.163383
    32  H    0.391307
    33  H    0.198099
    34  H    0.143823
    35  H    0.212637
    36  H    0.161027
    37  H    0.183146
    38  H    0.163956
    39  H    0.178107
    40  H    0.214275
    41  H    0.167217
    42  H    0.181730
    43  H    0.172617
    44  H    0.168692
    45  H    0.162993
    46  H    0.157831
    47  H    0.199583
    48  H    0.176660
    49  H    0.176898
    50  H    0.184465
    51  H    0.147618
    52  H    0.227069
    53  H    0.390441
    54  H    0.211039
    55  H    0.210732
    56  H    0.177067
    57  H    0.395562
    58  H    0.164284
    59  H    0.197779
    60  H    0.186190
    61  H    0.382550
    62  H    0.218736
    63  H    0.177352
    64  H    0.201085
 Sum of Mulliken atomic charges =   0.00000

 Dipole moment (field-independent basis, Debye):
    X=             -2.1326    Y=             -3.6644    Z=             -7.4517  Tot=              8.5734
 Quadrupole moment (field-independent basis, Debye-Ang):
   XX=           -183.8017   YY=           -158.6679   ZZ=           -173.6601
   XY=              8.6711   XZ=             13.5610   YZ=             -2.3764

 Normal termination of Gaussian 09 at Thu Dec  5 19:09:01 2019.
