 Gaussian 09, Revision A.02,
 Gaussian 09:  EM64L-G09RevA.02 11-Jun-2009

 ---------------------------------
 #SP HF/6-31G* Geom=(ModRedundant)
 ---------------------------------

 ------------
 paramfit run
 ------------
 Symbolic Z-matrix:
 Charge =  0 Multiplicity = 1

                         Standard orientation:
 ---------------------------------------------------------------------
 Center     Atomic      Atomic             Coordinates (Angstroms)
 Number     Number       Type             X           Y           Z
 ---------------------------------------------------------------------
      1          6    20001001       -4.053133    1.948836    2.356888
      2          7    20001014       -4.310894    0.834052    1.469159
      3          6    20001002       -4.302502    1.022563    0.128822
      4          8    20001024       -3.872482    2.020615   -0.379824
      5          6    90000001       -4.749698   -0.172230   -0.732498
      6          6    90000002       -5.129297    0.318750   -2.133456
      7          6    90000002       -3.623856   -1.240282   -0.790361
      8          6    90000002       -2.258289   -0.854561   -1.387088
      9          6    90000002       -1.255878   -0.127995   -0.468441
     10          6    20001004       -0.922294   -0.883367    0.796633
     11          6    20001004        0.136695   -1.642506    1.026864
     12          6    90000002        1.274360   -1.942721    0.080639
     13          6    90000002        2.562243   -1.149416    0.366275
     14          6    90000002        3.502971   -1.091198   -0.844740
     15          6    90000002        4.752076   -0.176862   -0.753244
     16          6    90000002        5.549017   -0.346933   -2.056859
     17          7    20001014        4.307648    1.205018   -0.633147
     18          6    20001002        5.188557    2.218924   -0.390143
     19          6    20001001        4.560098    3.510097    0.081782
     20          8    20001024        6.373276    2.101762   -0.537982
     21          6    20001002        5.538526   -0.545313    0.525218
     22          8    20001024        5.219298   -0.082951    1.587407
     23          7    20001014        6.513952   -1.472298    0.410237
     24          6    20001001        7.323174   -1.826249    1.558314
     25          7    20001014       -5.885095   -0.861897   -0.102685
     26          6    20001002       -7.081391   -0.263437    0.162633
     27          6    20001001       -8.219553   -1.212448    0.475816
     28          8    20001024       -7.223340    0.926516    0.161246
     29          1    20001035       -4.835979    2.696630    2.302989
     30          1    20001035       -3.114690    2.414892    2.094516
     31          1    20001035       -3.987023    1.575076    3.370933
     32          1    20001029       -4.889191    0.102793    1.811383
     33          1    20001034       -4.310177    0.845993   -2.598204
     34          1    20001034       -5.400952   -0.530961   -2.752676
     35          1    20001034       -5.967835    0.997654   -2.079891
     36          1    20001034       -4.020493   -2.051371   -1.397018
     37          1    20001034       -3.483433   -1.646695    0.206328
     38          1    20001034       -1.791733   -1.780462   -1.710585
     39          1    20001034       -2.399787   -0.259536   -2.283357
     40          1    20001034       -1.634952    0.851283   -0.206368
     41          1    20001034       -0.356671    0.044899   -1.049275
     42          1    20001033       -1.637829   -0.777901    1.596007
     43          1    20001033        0.210885   -2.103370    1.999418
     44          1    20001034        0.974821   -1.746291   -0.941691
     45          1    20001034        1.495404   -3.008114    0.132331
     46          1    20001034        2.272375   -0.150074    0.678791
     47          1    20001034        3.072959   -1.589615    1.212576
     48          1    20001034        2.944875   -0.766046   -1.720148
     49          1    20001034        3.856639   -2.093340   -1.056828
     50          1    20001034        4.953397    0.031404   -2.879463
     51          1    20001034        5.754072   -1.393194   -2.258532
     52          1    20001034        6.477144    0.204142   -2.031664
     53          1    20001029        3.409458    1.328248   -0.224759
     54          1    20001034        5.241539    4.325134   -0.109045
     55          1    20001034        4.390451    3.441267    1.152112
     56          1    20001034        3.609920    3.703199   -0.404280
     57          1    20001029        6.900567   -1.642760   -0.487974
     58          1    20001035        7.955837   -2.662282    1.290535
     59          1    20001035        6.684297   -2.116625    2.379377
     60          1    20001035        7.944611   -0.998177    1.883687
     61          1    20001029       -5.899769   -1.851683   -0.210647
     62          1    20001034       -8.975418   -0.679098    1.033651
     63          1    20001034       -7.889667   -2.076762    1.041224
     64          1    20001034       -8.657895   -1.561838   -0.453477
 ---------------------------------------------------------------------

 SCF Done:  E(RHF) =  -1295.62149682     A.U. after   14 cycles

 The electronic state is 1-A.
 Alpha  occ. eigenvalues --  -20.53686 -20.51927 -20.51919 -20.51665 -15.59653
 Alpha  occ. eigenvalues --  -15.58030 -15.57573 -15.57403 -11.36003 -11.34112
 Alpha  occ. eigenvalues --  -11.33933 -11.33750 -11.29098 -11.28593 -11.25185
 Alpha  occ. eigenvalues --  -11.24901 -11.24377 -11.24085 -11.23556 -11.22832
 Alpha  occ. eigenvalues --  -11.22502 -11.22269 -11.22249 -11.22236 -11.21972
 Alpha  occ. eigenvalues --  -11.21804 -11.21795 -11.20941  -1.40625  -1.39340
 Alpha  occ. eigenvalues --   -1.38783  -1.38069  -1.25481  -1.23465  -1.22733
 Alpha  occ. eigenvalues --   -1.22120  -1.10737  -1.09263  -1.07284  -1.04250
 Alpha  occ. eigenvalues --   -1.01310  -0.99388  -0.98605  -0.95549  -0.95312
 Alpha  occ. eigenvalues --   -0.94712  -0.92017  -0.87281  -0.85630  -0.82545
 Alpha  occ. eigenvalues --   -0.81534  -0.79447  -0.79007  -0.77227  -0.76902
 Alpha  occ. eigenvalues --   -0.72024  -0.71377  -0.71215  -0.68996  -0.67620
 Alpha  occ. eigenvalues --   -0.66991  -0.65928  -0.64696  -0.64199  -0.63713
 Alpha  occ. eigenvalues --   -0.62765  -0.62469  -0.61574  -0.61262  -0.61208
 Alpha  occ. eigenvalues --   -0.60944  -0.59823  -0.59432  -0.58663  -0.58380
 Alpha  occ. eigenvalues --   -0.58221  -0.57821  -0.57069  -0.56471  -0.55790
 Alpha  occ. eigenvalues --   -0.55574  -0.55016  -0.54572  -0.54539  -0.53586
 Alpha  occ. eigenvalues --   -0.53252  -0.52860  -0.52472  -0.51920  -0.51628
 Alpha  occ. eigenvalues --   -0.51100  -0.50191  -0.49677  -0.49280  -0.48804
 Alpha  occ. eigenvalues --   -0.47738  -0.47361  -0.47012  -0.44594  -0.42917
 Alpha  occ. eigenvalues --   -0.42007  -0.41507  -0.40951  -0.39345  -0.38865
 Alpha  occ. eigenvalues --   -0.38367  -0.38333  -0.34479
 Alpha virt. eigenvalues --    0.17677   0.18772   0.19594   0.19946   0.20242
 Alpha virt. eigenvalues --    0.21312   0.21672   0.23073   0.23392   0.24021
 Alpha virt. eigenvalues --    0.25093   0.25360   0.26277   0.27074   0.27762

 Mulliken atomic charges:
              1
     1  C   -0.279728
     2  N   -0.783083
     3  C    0.821985
     4  O   -0.629462
     5  C    0.102368
     6  C   -0.472636
     7  C   -0.334490
     8  C   -0.311129
     9  C   -0.370078
    10  C   -0.182342
    11  C   -0.171102
    12  C   -0.352582
    13  C   -0.316925
    14  C   -0.325889
    15  C    0.090730
    16  C   -0.509751
    17  N   -0.787332
    18  C    0.766606
    19  C   -0.595863
    20  O   -0.614932
    21  C    0.819019
    22  O   -0.638205
    23  N   -0.806993
    24  C   -0.275032
    25  N   -0.842981
    26  C    0.744565
    27  C   -0.588751
    28  O   -0.591787
    29  H    0.186910
    30  H    0.197432
    31  H    0.163958
    32  H    0.391764
    33  H    0.197903
    34  H    0.144220
    35  H    0.212760
    36  H    0.161593
    37  H    0.183549
    38  H    0.165065
    39  H    0.178380
    40  H    0.212472
    41  H    0.165133
    42  H    0.182134
    43  H    0.174956
    44  H    0.165627
    45  H    0.166367
    46  H    0.163682
    47  H    0.192459
    48  H    0.177058
    49  H    0.176438
    50  H    0.185207
    51  H    0.147533
    52  H    0.227188
    53  H    0.392241
    54  H    0.210724
    55  H    0.209387
    56  H    0.179757
    57  H    0.395830
    58  H    0.164507
    59  H    0.196888
    60  H    0.186203
    61  H    0.382800
    62  H    0.218853
    63  H    0.177572
    64  H    0.201251
 Sum of Mulliken atomic charges =   0.00000

 Dipole moment (field-independent basis, Debye):
    X=             -2.7206    Y=             -7.6119    Z=             -0.3733  Tot=              8.0921
 Quadrupole moment (field-independent basis, Debye-Ang):
   XX=           -176.1921   YY=           -170.0750   ZZ=           -168.6050
   XY=             12.5173   XZ=            -13.9200   YZ=              5.1542

 Normal termination of Gaussian 09 at Thu Dec  5 18:27:02 2019.
