 Gaussian 09, Revision A.02,
 Gaussian 09:  EM64L-G09RevA.02 11-Jun-2009

 ---------------------------------
 #SP HF/6-31G* Geom=(ModRedundant)
 ---------------------------------

 ------------
 paramfit run
 ------------
 Symbolic Z-matrix:
 Charge =  0 Multiplicity = 1

                         Standard orientation:
 ---------------------------------------------------------------------
 Center     Atomic      Atomic             Coordinates (Angstroms)
 Number     Number       Type             X           Y           Z
 ---------------------------------------------------------------------
      1          6    20001001        4.003008    2.215555   -2.088026
      2          7    20001014        4.270704    1.000819   -1.346405
      3          6    20001002        4.254739    1.018804    0.006936
      4          8    20001024        3.810689    1.939794    0.634904
      5          6    90000001        4.712926   -0.269794    0.713310
      6          6    90000002        5.081027    0.045045    2.167002
      7          6    90000002        3.599846   -1.349480    0.630045
      8          6    90000002        2.227373   -1.057744    1.263166
      9          6    90000002        1.219898   -0.232760    0.437919
     10          6    20001004        0.900464   -0.826462   -0.914027
     11          6    20001004       -0.148361   -1.562646   -1.243811
     12          6    90000002       -1.286047   -1.992758   -0.349146
     13          6    90000002       -2.582280   -1.184624   -0.539582
     14          6    90000002       -3.414173   -1.087648    0.746289
     15          6    90000002       -4.653308   -0.155348    0.743378
     16          6    90000002       -5.337247   -0.287085    2.113897
     17          7    20001014       -4.201164    1.216609    0.556744
     18          6    20001002       -5.085148    2.239575    0.369212
     19          6    20001001       -4.481307    3.511023   -0.181789
     20          8    20001024       -6.254266    2.144355    0.620687
     21          6    20001002       -5.552236   -0.536058   -0.454834
     22          8    20001024       -5.319187   -0.099737   -1.549933
     23          7    20001014       -6.527279   -1.444845   -0.237172
     24          6    20001001       -7.437444   -1.808143   -1.303856
     25          7    20001014        5.859050   -0.861506    0.007827
     26          6    20001002        7.049070   -0.220683   -0.173476
     27          6    20001001        8.199840   -1.109526   -0.597510
     28          8    20001024        7.176629    0.961159   -0.021432
     29          1    20001035        4.776545    2.959536   -1.936099
     30          1    20001035        3.057974    2.634022   -1.774148
     31          1    20001035        3.945425    1.971834   -3.141419
     32          1    20001029        4.859139    0.325208   -1.774865
     33          1    20001034        4.253769    0.500074    2.689998
     34          1    20001034        5.360476   -0.872751    2.675722
     35          1    20001034        5.911509    0.734872    2.203948
     36          1    20001034        4.003851   -2.225947    1.131848
     37          1    20001034        3.468283   -1.628634   -0.410650
     38          1    20001034        1.770759   -2.022328    1.464909
     39          1    20001034        2.358130   -0.578829    2.228006
     40          1    20001034        1.588149    0.776025    0.303357
     41          1    20001034        0.316379   -0.144781    1.031002
     42          1    20001033        1.617826   -0.612887   -1.689843
     43          1    20001033       -0.213135   -1.898092   -2.267062
     44          1    20001034       -0.992945   -1.923304    0.691398
     45          1    20001034       -1.494001   -3.045610   -0.535834
     46          1    20001034       -2.306166   -0.196365   -0.896623
     47          1    20001034       -3.170299   -1.633035   -1.329514
     48          1    20001034       -2.778092   -0.754440    1.563544
     49          1    20001034       -3.762541   -2.079647    1.008835
     50          1    20001034       -4.667577    0.097658    2.874222
     51          1    20001034       -5.539099   -1.325777    2.354223
     52          1    20001034       -6.256112    0.278216    2.157033
     53          1    20001029       -3.339855    1.317400    0.070227
     54          1    20001034       -5.132031    4.340466    0.049825
     55          1    20001034       -4.405567    3.418563   -1.261066
     56          1    20001034       -3.490099    3.698318    0.216718
     57          1    20001029       -6.837418   -1.591484    0.694290
     58          1    20001035       -8.056562   -2.628521   -0.965337
     59          1    20001035       -6.875950   -2.124735   -2.170528
     60          1    20001035       -8.072709   -0.976726   -1.591848
     61          1    20001029        5.885252   -1.856772   -0.009673
     62          1    20001034        8.951407   -0.501483   -1.079595
     63          1    20001034        7.882655   -1.899425   -1.269077
     64          1    20001034        8.638694   -1.568185    0.282741
 ---------------------------------------------------------------------

 SCF Done:  E(RHF) =  -1295.61996044     A.U. after   14 cycles

 The electronic state is 1-A.
 Alpha  occ. eigenvalues --  -20.53697 -20.51947 -20.51899 -20.51658 -15.59665
 Alpha  occ. eigenvalues --  -15.58023 -15.57596 -15.57377 -11.36014 -11.34093
 Alpha  occ. eigenvalues --  -11.33952 -11.33742 -11.29111 -11.28568 -11.25181
 Alpha  occ. eigenvalues --  -11.24935 -11.24386 -11.24096 -11.23562 -11.22843
 Alpha  occ. eigenvalues --  -11.22459 -11.22261 -11.22255 -11.22198 -11.21983
 Alpha  occ. eigenvalues --  -11.21821 -11.21774 -11.20951  -1.40637  -1.39327
 Alpha  occ. eigenvalues --   -1.38802  -1.38055  -1.25494  -1.23442  -1.22724
 Alpha  occ. eigenvalues --   -1.22143  -1.10752  -1.09265  -1.07282  -1.04251
 Alpha  occ. eigenvalues --   -1.01311  -0.99394  -0.98592  -0.95575  -0.95316
 Alpha  occ. eigenvalues --   -0.94706  -0.92023  -0.87286  -0.85628  -0.82555
 Alpha  occ. eigenvalues --   -0.81548  -0.79435  -0.79017  -0.77248  -0.76887
 Alpha  occ. eigenvalues --   -0.72026  -0.71374  -0.71230  -0.69009  -0.67589
 Alpha  occ. eigenvalues --   -0.66991  -0.65940  -0.64694  -0.64173  -0.63750
 Alpha  occ. eigenvalues --   -0.62748  -0.62478  -0.61588  -0.61266  -0.61197
 Alpha  occ. eigenvalues --   -0.60972  -0.59861  -0.59424  -0.58667  -0.58394
 Alpha  occ. eigenvalues --   -0.58220  -0.57798  -0.57064  -0.56512  -0.55780
 Alpha  occ. eigenvalues --   -0.55552  -0.55000  -0.54587  -0.54513  -0.53573
 Alpha  occ. eigenvalues --   -0.53401  -0.52874  -0.52520  -0.51916  -0.51591
 Alpha  occ. eigenvalues --   -0.51112  -0.50182  -0.49670  -0.49290  -0.48766
 Alpha  occ. eigenvalues --   -0.47815  -0.47132  -0.47037  -0.44601  -0.42929
 Alpha  occ. eigenvalues --   -0.42021  -0.41494  -0.40933  -0.39361  -0.38852
 Alpha  occ. eigenvalues --   -0.38390  -0.38322  -0.34497
 Alpha virt. eigenvalues --    0.17638   0.18761   0.19575   0.19932   0.20234
 Alpha virt. eigenvalues --    0.21355   0.21684   0.23124   0.23435   0.23900
 Alpha virt. eigenvalues --    0.25064   0.25264   0.26294   0.27054   0.27705

 Mulliken atomic charges:
              1
     1  C   -0.279627
     2  N   -0.783105
     3  C    0.821989
     4  O   -0.629445
     5  C    0.102352
     6  C   -0.472653
     7  C   -0.334517
     8  C   -0.311052
     9  C   -0.370383
    10  C   -0.182931
    11  C   -0.172739
    12  C   -0.354604
    13  C   -0.317183
    14  C   -0.327788
    15  C    0.090569
    16  C   -0.509848
    17  N   -0.787268
    18  C    0.766700
    19  C   -0.596011
    20  O   -0.615001
    21  C    0.818936
    22  O   -0.638489
    23  N   -0.806965
    24  C   -0.275005
    25  N   -0.842997
    26  C    0.744550
    27  C   -0.588754
    28  O   -0.591808
    29  H    0.187032
    30  H    0.197053
    31  H    0.163905
    32  H    0.391821
    33  H    0.197949
    34  H    0.144266
    35  H    0.212768
    36  H    0.161663
    37  H    0.183564
    38  H    0.165156
    39  H    0.178441
    40  H    0.212196
    41  H    0.165429
    42  H    0.181884
    43  H    0.175069
    44  H    0.166987
    45  H    0.168435
    46  H    0.165340
    47  H    0.193077
    48  H    0.177977
    49  H    0.176628
    50  H    0.185503
    51  H    0.147429
    52  H    0.227168
    53  H    0.392611
    54  H    0.210713
    55  H    0.208919
    56  H    0.180158
    57  H    0.395878
    58  H    0.164528
    59  H    0.196788
    60  H    0.186176
    61  H    0.382835
    62  H    0.218857
    63  H    0.177588
    64  H    0.201289
 Sum of Mulliken atomic charges =   0.00000

 Dipole moment (field-independent basis, Debye):
    X=              2.9008    Y=             -7.4021    Z=             -0.4387  Tot=              7.9623
 Quadrupole moment (field-independent basis, Debye-Ang):
   XX=           -175.9143   YY=           -169.4796   ZZ=           -169.7386
   XY=            -11.2658   XZ=            -18.0870   YZ=             -7.5761

 Normal termination of Gaussian 09 at Thu Dec  5 18:32:28 2019.
