 Gaussian 09, Revision A.02,
 Gaussian 09:  EM64L-G09RevA.02 11-Jun-2009

 ---------------------------------
 #SP HF/6-31G* Geom=(ModRedundant)
 ---------------------------------

 ------------
 paramfit run
 ------------
 Symbolic Z-matrix:
 Charge =  0 Multiplicity = 1

                         Standard orientation:
 ---------------------------------------------------------------------
 Center     Atomic      Atomic             Coordinates (Angstroms)
 Number     Number       Type             X           Y           Z
 ---------------------------------------------------------------------
      1          6    20001001       -3.274212   -1.377404    2.628651
      2          7    20001014       -3.752217   -1.018816    1.309496
      3          6    20001002       -3.942421    0.282971    0.991246
      4          8    20001024       -3.525027    1.180702    1.669190
      5          6    90000001       -4.608727    0.564365   -0.367518
      6          6    90000002       -5.167880    1.990918   -0.379160
      7          6    90000002       -3.589460    0.344138   -1.518256
      8          6    90000002       -2.310824    1.200397   -1.557597
      9          6    90000002       -1.123866    0.753955   -0.680981
     10          6    20001004       -0.651356   -0.654211   -0.956811
     11          6    20001004        0.370909   -1.028825   -1.708738
     12          6    90000002        1.318399   -0.140534   -2.478773
     13          6    90000002        2.691007    0.052760   -1.809334
     14          6    90000002        2.669039   -0.269571   -0.309155
     15          6    90000002        4.020245   -0.288580    0.451455
     16          6    90000002        3.716422   -0.571889    1.931617
     17          7    20001014        4.841926   -1.362787   -0.089330
     18          6    20001002        6.142842   -1.525813    0.290272
     19          6    20001001        6.964020   -2.416223   -0.613963
     20          8    20001024        6.606479   -1.005285    1.266609
     21          6    20001002        4.746669    1.051655    0.196887
     22          8    20001024        5.399600    1.207242   -0.799808
     23          7    20001014        4.531772    2.052916    1.077385
     24          6    20001001        5.220969    3.317968    0.926215
     25          7    20001014       -5.678264   -0.410714   -0.625860
     26          6    20001002       -6.769142   -0.567999    0.177208
     27          6    20001001       -7.911033   -1.351906   -0.435732
     28          8    20001024       -6.820037   -0.130171    1.291594
     29          1    20001035       -3.997496   -1.136003    3.399063
     30          1    20001035       -2.357038   -0.847822    2.840922
     31          1    20001035       -3.076277   -2.441752    2.647073
     32          1    20001029       -4.322014   -1.679903    0.835596
     33          1    20001034       -4.395698    2.715205   -0.169221
     34          1    20001034       -5.597138    2.202660   -1.353911
     35          1    20001034       -5.934107    2.100922    0.374313
     36          1    20001034       -4.136879    0.544237   -2.436685
     37          1    20001034       -3.323562   -0.707916   -1.545874
     38          1    20001034       -1.972114    1.199612   -2.589534
     39          1    20001034       -2.547736    2.232113   -1.319253
     40          1    20001034       -1.382196    0.841785    0.366356
     41          1    20001034       -0.317773    1.459173   -0.850437
     42          1    20001033       -1.221127   -1.431936   -0.474507
     43          1    20001033        0.563697   -2.087361   -1.786824
     44          1    20001034        0.876066    0.836125   -2.633515
     45          1    20001034        1.464465   -0.567634   -3.470158
     46          1    20001034        3.404650   -0.579663   -2.330032
     47          1    20001034        3.024994    1.070000   -1.965875
     48          1    20001034        2.214063   -1.245867   -0.156267
     49          1    20001034        2.032387    0.451126    0.190466
     50          1    20001034        3.304457   -1.570744    2.016197
     51          1    20001034        2.975429    0.119094    2.320014
     52          1    20001034        4.608228   -0.522872    2.538263
     53          1    20001029        4.650553   -1.609733   -1.033315
     54          1    20001034        7.819582   -2.782305   -0.067101
     55          1    20001034        7.314846   -1.825758   -1.455032
     56          1    20001034        6.387685   -3.251048   -0.997743
     57          1    20001029        4.199509    1.822094    1.983825
     58          1    20001035        4.823837    4.016523    1.650940
     59          1    20001035        5.054135    3.707868   -0.067148
     60          1    20001035        6.290449    3.214675    1.078849
     61          1    20001029       -5.783924   -0.690607   -1.575620
     62          1    20001034       -8.526787   -1.749914    0.357622
     63          1    20001034       -7.561284   -2.160494   -1.067722
     64          1    20001034       -8.516119   -0.685009   -1.041472
 ---------------------------------------------------------------------

 SCF Done:  E(RHF) =  -1295.61396979     A.U. after   14 cycles

 The electronic state is 1-A.
 Alpha  occ. eigenvalues --  -20.53765 -20.52043 -20.51876 -20.51428 -15.59731
 Alpha  occ. eigenvalues --  -15.57742 -15.57710 -15.57308 -11.36080 -11.34088
 Alpha  occ. eigenvalues --  -11.34046 -11.33477 -11.29176 -11.28184 -11.25082
 Alpha  occ. eigenvalues --  -11.24921 -11.24447 -11.24150 -11.22879 -11.22839
 Alpha  occ. eigenvalues --  -11.22479 -11.22420 -11.22397 -11.22210 -11.22099
 Alpha  occ. eigenvalues --  -11.21886 -11.21439 -11.21000  -1.40707  -1.39196
 Alpha  occ. eigenvalues --   -1.38897  -1.37929  -1.25565  -1.23315  -1.22460
 Alpha  occ. eigenvalues --   -1.22253  -1.11003  -1.09286  -1.07029  -1.04254
 Alpha  occ. eigenvalues --   -1.01187  -0.99336  -0.98631  -0.95692  -0.95149
 Alpha  occ. eigenvalues --   -0.94474  -0.92339  -0.87349  -0.85662  -0.82845
 Alpha  occ. eigenvalues --   -0.81252  -0.79284  -0.78849  -0.77352  -0.76693
 Alpha  occ. eigenvalues --   -0.71736  -0.71335  -0.71228  -0.69064  -0.67874
 Alpha  occ. eigenvalues --   -0.66751  -0.66016  -0.64548  -0.64168  -0.63572
 Alpha  occ. eigenvalues --   -0.62843  -0.62550  -0.61479  -0.61332  -0.61025
 Alpha  occ. eigenvalues --   -0.60803  -0.59899  -0.59441  -0.58759  -0.58569
 Alpha  occ. eigenvalues --   -0.58304  -0.57571  -0.56724  -0.56586  -0.56018
 Alpha  occ. eigenvalues --   -0.55627  -0.54993  -0.54715  -0.54625  -0.53543
 Alpha  occ. eigenvalues --   -0.53262  -0.52976  -0.52748  -0.52249  -0.51500
 Alpha  occ. eigenvalues --   -0.51184  -0.50409  -0.49660  -0.49305  -0.48709
 Alpha  occ. eigenvalues --   -0.47160  -0.46934  -0.46380  -0.44640  -0.43000
 Alpha  occ. eigenvalues --   -0.42095  -0.41281  -0.40881  -0.39442  -0.38678
 Alpha  occ. eigenvalues --   -0.38503  -0.38095  -0.34613
 Alpha virt. eigenvalues --    0.17366   0.18690   0.19842   0.19948   0.20128
 Alpha virt. eigenvalues --    0.21491   0.22076   0.23059   0.23337   0.23405
 Alpha virt. eigenvalues --    0.25113   0.25692   0.26301   0.26746   0.27628

 Mulliken atomic charges:
              1
     1  C   -0.279413
     2  N   -0.783345
     3  C    0.822090
     4  O   -0.629417
     5  C    0.102258
     6  C   -0.472701
     7  C   -0.334736
     8  C   -0.311371
     9  C   -0.371434
    10  C   -0.178820
    11  C   -0.184914
    12  C   -0.352024
    13  C   -0.323215
    14  C   -0.325218
    15  C    0.091186
    16  C   -0.509672
    17  N   -0.787507
    18  C    0.767523
    19  C   -0.595499
    20  O   -0.614025
    21  C    0.819315
    22  O   -0.641851
    23  N   -0.806250
    24  C   -0.274995
    25  N   -0.843117
    26  C    0.744494
    27  C   -0.588733
    28  O   -0.591885
    29  H    0.187485
    30  H    0.196350
    31  H    0.163294
    32  H    0.391857
    33  H    0.198135
    34  H    0.144691
    35  H    0.212694
    36  H    0.162191
    37  H    0.182823
    38  H    0.166331
    39  H    0.179185
    40  H    0.211197
    41  H    0.169407
    42  H    0.180751
    43  H    0.170495
    44  H    0.175530
    45  H    0.172304
    46  H    0.150678
    47  H    0.198519
    48  H    0.187849
    49  H    0.183889
    50  H    0.183392
    51  H    0.151427
    52  H    0.224965
    53  H    0.388472
    54  H    0.210785
    55  H    0.208563
    56  H    0.175579
    57  H    0.396760
    58  H    0.165881
    59  H    0.196112
    60  H    0.184868
    61  H    0.382942
    62  H    0.218843
    63  H    0.177463
    64  H    0.201569
 Sum of Mulliken atomic charges =   0.00000

 Dipole moment (field-independent basis, Debye):
    X=             -4.4139    Y=             -3.8067    Z=             -4.6585  Tot=              7.4616
 Quadrupole moment (field-independent basis, Debye-Ang):
   XX=           -192.7508   YY=           -160.2396   ZZ=           -172.7342
   XY=             13.3735   XZ=             22.3705   YZ=              3.4396

 Normal termination of Gaussian 09 at Thu Dec  5 18:43:09 2019.
