 Gaussian 09, Revision A.02,
 Gaussian 09:  EM64L-G09RevA.02 11-Jun-2009

 ---------------------------------
 #SP HF/6-31G* Geom=(ModRedundant)
 ---------------------------------

 ------------
 paramfit run
 ------------
 Symbolic Z-matrix:
 Charge =  0 Multiplicity = 1

                         Standard orientation:
 ---------------------------------------------------------------------
 Center     Atomic      Atomic             Coordinates (Angstroms)
 Number     Number       Type             X           Y           Z
 ---------------------------------------------------------------------
      1          6    20001001       -4.031647    2.927638   -0.669312
      2          7    20001014       -4.316078    1.622673   -0.109483
      3          6    20001002       -4.456088    0.553247   -0.927307
      4          8    20001024       -4.137498    0.579175   -2.083842
      5          6    90000001       -4.921431   -0.756696   -0.266329
      6          6    90000002       -5.470019   -1.705203   -1.337415
      7          6    90000002       -3.749148   -1.404374    0.519717
      8          6    90000002       -2.476025   -1.815268   -0.241835
      9          6    90000002       -1.427036   -0.721367   -0.524041
     10          6    20001004       -0.923220   -0.018559    0.714712
     11          6    20001004        0.194879   -0.259594    1.379929
     12          6    90000002        1.244381   -1.298600    1.065663
     13          6    90000002        2.508073   -0.738148    0.388506
     14          6    90000002        3.669687   -0.542160    1.371947
     15          6    90000002        5.054999   -0.152440    0.794298
     16          6    90000002        6.014904    0.041287    1.979415
     17          7    20001014        5.532313   -1.244461   -0.043073
     18          6    20001002        6.662371   -1.122280   -0.798784
     19          6    20001001        6.819844   -2.163518   -1.883140
     20          8    20001024        7.473956   -0.256805   -0.621510
     21          6    20001002        4.882269    1.099738   -0.095050
     22          8    20001024        4.525214    0.987433   -1.236903
     23          7    20001014        5.046943    2.305871    0.489847
     24          6    20001001        4.949594    3.517918   -0.297342
     25          7    20001014       -5.945454   -0.481590    0.752064
     26          6    20001002       -7.139945    0.118126    0.481502
     27          6    20001001       -8.184647   -0.009351    1.570753
     28          8    20001024       -7.348065    0.714020   -0.537191
     29          1    20001035       -4.856747    3.298918   -1.266230
     30          1    20001035       -3.152872    2.872704   -1.294979
     31          1    20001035       -3.840746    3.617972    0.142692
     32          1    20001029       -4.814049    1.593506    0.749272
     33          1    20001034       -4.733987   -1.897992   -2.102936
     34          1    20001034       -5.755585   -2.645448   -0.875214
     35          1    20001034       -6.335506   -1.271376   -1.816636
     36          1    20001034       -4.159718   -2.306922    0.966995
     37          1    20001034       -3.484391   -0.749816    1.344180
     38          1    20001034       -1.993787   -2.582313    0.357085
     39          1    20001034       -2.742152   -2.289438   -1.180831
     40          1    20001034       -1.831712    0.013417   -1.207922
     41          1    20001034       -0.603443   -1.194945   -1.046777
     42          1    20001033       -1.557624    0.770799    1.084250
     43          1    20001033        0.394445    0.351201    2.246453
     44          1    20001034        0.830794   -2.069396    0.426690
     45          1    20001034        1.529207   -1.794171    1.992959
     46          1    20001034        2.787310   -1.422323   -0.407927
     47          1    20001034        2.268457    0.199722   -0.095038
     48          1    20001034        3.818272   -1.456712    1.942078
     49          1    20001034        3.394057    0.226372    2.084504
     50          1    20001034        6.148880   -0.912252    2.476803
     51          1    20001034        5.605159    0.733042    2.708089
     52          1    20001034        6.983517    0.391006    1.655034
     53          1    20001029        4.822357   -1.812095   -0.446146
     54          1    20001034        7.860082   -2.226342   -2.164244
     55          1    20001034        6.243363   -1.851359   -2.748790
     56          1    20001034        6.464218   -3.138419   -1.567735
     57          1    20001029        5.563090    2.354204    1.336350
     58          1    20001035        4.990042    4.368063    0.370893
     59          1    20001035        4.009953    3.532629   -0.829777
     60          1    20001035        5.754873    3.593968   -1.020874
     61          1    20001029       -5.915386   -1.063665    1.559425
     62          1    20001034       -8.908016    0.784628    1.455403
     63          1    20001034       -7.750264    0.033190    2.563251
     64          1    20001034       -8.695785   -0.960787    1.464410
 ---------------------------------------------------------------------

 SCF Done:  E(RHF) =  -1295.61778338     A.U. after   14 cycles

 The electronic state is 1-A.
 Alpha  occ. eigenvalues --  -20.53591 -20.52057 -20.51753 -20.51624 -15.59548
 Alpha  occ. eigenvalues --  -15.57973 -15.57544 -15.57431 -11.35912 -11.34264
 Alpha  occ. eigenvalues --  -11.33769 -11.33717 -11.28958 -11.28593 -11.25071
 Alpha  occ. eigenvalues --  -11.24764 -11.24313 -11.23935 -11.23561 -11.22623
 Alpha  occ. eigenvalues --  -11.22499 -11.22417 -11.22195 -11.22124 -11.21854
 Alpha  occ. eigenvalues --  -11.21831 -11.21483 -11.20801  -1.40526  -1.39387
 Alpha  occ. eigenvalues --   -1.38613  -1.38113  -1.25367  -1.23572  -1.22680
 Alpha  occ. eigenvalues --   -1.21980  -1.10636  -1.09223  -1.07203  -1.04182
 Alpha  occ. eigenvalues --   -1.01231  -0.99310  -0.98728  -0.95410  -0.95167
 Alpha  occ. eigenvalues --   -0.94622  -0.92019  -0.87193  -0.85630  -0.82646
 Alpha  occ. eigenvalues --   -0.81401  -0.79512  -0.78815  -0.77085  -0.76922
 Alpha  occ. eigenvalues --   -0.72015  -0.71309  -0.71082  -0.68882  -0.68153
 Alpha  occ. eigenvalues --   -0.66359  -0.65765  -0.64528  -0.64048  -0.63740
 Alpha  occ. eigenvalues --   -0.62547  -0.62221  -0.61741  -0.61418  -0.61168
 Alpha  occ. eigenvalues --   -0.60854  -0.59835  -0.59273  -0.58698  -0.58427
 Alpha  occ. eigenvalues --   -0.58194  -0.57701  -0.56674  -0.56281  -0.56103
 Alpha  occ. eigenvalues --   -0.55360  -0.54844  -0.54773  -0.54439  -0.54199
 Alpha  occ. eigenvalues --   -0.52943  -0.52746  -0.52541  -0.52051  -0.51583
 Alpha  occ. eigenvalues --   -0.50968  -0.50043  -0.49831  -0.49325  -0.48768
 Alpha  occ. eigenvalues --   -0.48152  -0.46874  -0.46168  -0.44480  -0.42803
 Alpha  occ. eigenvalues --   -0.41869  -0.41517  -0.41077  -0.39210  -0.38878
 Alpha  occ. eigenvalues --   -0.38326  -0.38214  -0.34340
 Alpha virt. eigenvalues --    0.17542   0.18858   0.19615   0.20055   0.20317
 Alpha virt. eigenvalues --    0.21544   0.22011   0.23052   0.23397   0.24109
 Alpha virt. eigenvalues --    0.25395   0.25635   0.26483   0.26992   0.27558

 Mulliken atomic charges:
              1
     1  C   -0.279946
     2  N   -0.783259
     3  C    0.821880
     4  O   -0.628056
     5  C    0.102398
     6  C   -0.472720
     7  C   -0.334055
     8  C   -0.311766
     9  C   -0.371720
    10  C   -0.179047
    11  C   -0.170874
    12  C   -0.360981
    13  C   -0.318131
    14  C   -0.327278
    15  C    0.090333
    16  C   -0.509472
    17  N   -0.787291
    18  C    0.767232
    19  C   -0.595773
    20  O   -0.613952
    21  C    0.819854
    22  O   -0.637974
    23  N   -0.806813
    24  C   -0.275605
    25  N   -0.842991
    26  C    0.744610
    27  C   -0.588667
    28  O   -0.591675
    29  H    0.186627
    30  H    0.199436
    31  H    0.162395
    32  H    0.391111
    33  H    0.198788
    34  H    0.143730
    35  H    0.212481
    36  H    0.160831
    37  H    0.182414
    38  H    0.163486
    39  H    0.178897
    40  H    0.214257
    41  H    0.172343
    42  H    0.180272
    43  H    0.168468
    44  H    0.176238
    45  H    0.163674
    46  H    0.154305
    47  H    0.207821
    48  H    0.176363
    49  H    0.177636
    50  H    0.183925
    51  H    0.147771
    52  H    0.226908
    53  H    0.389916
    54  H    0.211226
    55  H    0.210077
    56  H    0.176367
    57  H    0.395270
    58  H    0.164184
    59  H    0.199455
    60  H    0.185707
    61  H    0.382462
    62  H    0.218593
    63  H    0.177150
    64  H    0.201157
 Sum of Mulliken atomic charges =   0.00000

 Dipole moment (field-independent basis, Debye):
    X=             -2.2148    Y=             -2.3863    Z=              7.9603  Tot=              8.6004
 Quadrupole moment (field-independent basis, Debye-Ang):
   XX=           -192.5038   YY=           -152.5463   ZZ=           -175.2401
   XY=              7.6158   XZ=            -21.0414   YZ=              9.8708

 Normal termination of Gaussian 09 at Thu Dec  5 18:42:53 2019.
