 Gaussian 09, Revision A.02,
 Gaussian 09:  EM64L-G09RevA.02 11-Jun-2009

 ---------------------------------
 #SP HF/6-31G* Geom=(ModRedundant)
 ---------------------------------

 ------------
 paramfit run
 ------------
 Symbolic Z-matrix:
 Charge =  0 Multiplicity = 1

                         Standard orientation:
 ---------------------------------------------------------------------
 Center     Atomic      Atomic             Coordinates (Angstroms)
 Number     Number       Type             X           Y           Z
 ---------------------------------------------------------------------
      1          6    20001001        4.141540    2.471777    1.798774
      2          7    20001014        4.396999    1.491001    0.764335
      3          6    20001002        4.485074    0.178949    1.085073
      4          8    20001024        4.141936   -0.248963    2.152263
      5          6    90000001        4.923393   -0.772663   -0.042622
      6          6    90000002        5.417951   -2.091004    0.561721
      7          6    90000002        3.748956   -1.006087   -1.031467
      8          6    90000002        2.446963   -1.639429   -0.508659
      9          6    90000002        1.427002   -0.711666    0.180960
     10          6    20001004        0.973147    0.447308   -0.675237
     11          6    20001004       -0.136997    0.535609   -1.389758
     12          6    90000002       -1.225443   -0.501786   -1.527053
     13          6    90000002       -2.485513   -0.212541   -0.691512
     14          6    90000002       -3.777168   -0.310311   -1.514302
     15          6    90000002       -5.129321   -0.217611   -0.760820
     16          6    90000002       -6.251245   -0.279616   -1.810055
     17          7    20001014       -5.240006   -1.360117    0.135818
     18          6    20001002       -6.263050   -1.465978    1.033165
     19          6    20001001       -6.044514   -2.480243    2.132399
     20          8    20001024       -7.263216   -0.807473    0.961187
     21          6    20001002       -5.128696    1.070184    0.093760
     22          8    20001024       -4.613051    1.076949    1.179114
     23          7    20001014       -5.631723    2.190340   -0.468555
     24          6    20001001       -5.708002    3.419022    0.294807
     25          7    20001014        5.977876   -0.151232   -0.857067
     26          6    20001002        7.184404    0.244119   -0.359412
     27          6    20001001        8.248422    0.524679   -1.400214
     28          8    20001024        7.388610    0.373287    0.814367
     29          1    20001035        4.964521    2.541142    2.500799
     30          1    20001035        3.247834    2.203842    2.343040
     31          1    20001035        3.990526    3.436422    1.330790
     32          1    20001029        4.912690    1.789787   -0.030067
     33          1    20001034        4.659439   -2.546583    1.179815
     34          1    20001034        5.683884   -2.777122   -0.236877
     35          1    20001034        6.285868   -1.918725    1.181372
     36          1    20001034        4.140660   -1.668405   -1.800312
     37          1    20001034        3.523290   -0.066405   -1.525787
     38          1    20001034        1.954151   -2.083199   -1.368789
     39          1    20001034        2.677151   -2.459966    0.162984
     40          1    20001034        1.839411   -0.328559    1.105358
     41          1    20001034        0.577514   -1.323616    0.463309
     42          1    20001033        1.640154    1.294028   -0.691949
     43          1    20001033       -0.297971    1.449635   -1.939672
     44          1    20001034       -0.850616   -1.479119   -1.248144
     45          1    20001034       -1.505158   -0.572869   -2.577434
     46          1    20001034       -2.501077   -0.915080    0.137083
     47          1    20001034       -2.401775    0.770392   -0.246922
     48          1    20001034       -3.789177   -1.253236   -2.056780
     49          1    20001034       -3.773238    0.476399   -2.259568
     50          1    20001034       -6.231160   -1.254936   -2.282207
     51          1    20001034       -6.102619    0.461361   -2.588670
     52          1    20001034       -7.224053   -0.142125   -1.362305
     53          1    20001029       -4.375790   -1.743373    0.443969
     54          1    20001034       -6.999924   -2.762113    2.548090
     55          1    20001034       -5.446808   -2.020291    2.913626
     56          1    20001034       -5.523324   -3.362261    1.776325
     57          1    20001029       -6.249187    2.095729   -1.239981
     58          1    20001035       -6.022101    4.216900   -0.365233
     59          1    20001035       -4.735386    3.658377    0.698977
     60          1    20001035       -6.410985    3.338898    1.117698
     61          1    20001029        5.947347   -0.359203   -1.830393
     62          1    20001034        8.993740    1.177869   -0.970311
     63          1    20001034        7.837675    0.977937   -2.295420
     64          1    20001034        8.726822   -0.408143   -1.680888
 ---------------------------------------------------------------------

 SCF Done:  E(RHF) =  -1295.61746592     A.U. after   14 cycles

 The electronic state is 1-A.
 Alpha  occ. eigenvalues --  -20.53589 -20.52038 -20.51752 -20.51651 -15.59548
 Alpha  occ. eigenvalues --  -15.58017 -15.57531 -15.57412 -11.35909 -11.34241
 Alpha  occ. eigenvalues --  -11.33766 -11.33741 -11.28965 -11.28597 -11.25140
 Alpha  occ. eigenvalues --  -11.24721 -11.24308 -11.23948 -11.23590 -11.22652
 Alpha  occ. eigenvalues --  -11.22453 -11.22413 -11.22191 -11.22114 -11.21858
 Alpha  occ. eigenvalues --  -11.21793 -11.21533 -11.20817  -1.40523  -1.39390
 Alpha  occ. eigenvalues --   -1.38611  -1.38118  -1.25366  -1.23564  -1.22722
 Alpha  occ. eigenvalues --   -1.21963  -1.10620  -1.09224  -1.07221  -1.04188
 Alpha  occ. eigenvalues --   -1.01247  -0.99319  -0.98708  -0.95385  -0.95211
 Alpha  occ. eigenvalues --   -0.94660  -0.91967  -0.87191  -0.85606  -0.82557
 Alpha  occ. eigenvalues --   -0.81449  -0.79516  -0.78870  -0.77072  -0.76942
 Alpha  occ. eigenvalues --   -0.72052  -0.71355  -0.71094  -0.68889  -0.68133
 Alpha  occ. eigenvalues --   -0.66324  -0.65777  -0.64565  -0.64179  -0.63685
 Alpha  occ. eigenvalues --   -0.62623  -0.62290  -0.61620  -0.61346  -0.61204
 Alpha  occ. eigenvalues --   -0.60794  -0.59782  -0.59300  -0.58709  -0.58423
 Alpha  occ. eigenvalues --   -0.58197  -0.57666  -0.56826  -0.56265  -0.56002
 Alpha  occ. eigenvalues --   -0.55418  -0.55026  -0.54759  -0.54373  -0.54029
 Alpha  occ. eigenvalues --   -0.52814  -0.52732  -0.52573  -0.52023  -0.51665
 Alpha  occ. eigenvalues --   -0.50977  -0.49966  -0.49784  -0.49322  -0.48806
 Alpha  occ. eigenvalues --   -0.48052  -0.46931  -0.46296  -0.44582  -0.42805
 Alpha  occ. eigenvalues --   -0.41871  -0.41524  -0.41055  -0.39209  -0.38897
 Alpha  occ. eigenvalues --   -0.38347  -0.38198  -0.34305
 Alpha virt. eigenvalues --    0.17720   0.18864   0.19611   0.20063   0.20351
 Alpha virt. eigenvalues --    0.21576   0.21715   0.22803   0.23422   0.24163
 Alpha virt. eigenvalues --    0.25516   0.25811   0.26352   0.27002   0.27681

 Mulliken atomic charges:
              1
     1  C   -0.280105
     2  N   -0.783141
     3  C    0.821891
     4  O   -0.628433
     5  C    0.102441
     6  C   -0.472649
     7  C   -0.334108
     8  C   -0.311594
     9  C   -0.370266
    10  C   -0.180095
    11  C   -0.171853
    12  C   -0.356486
    13  C   -0.317643
    14  C   -0.330050
    15  C    0.090426
    16  C   -0.509393
    17  N   -0.787186
    18  C    0.767096
    19  C   -0.595736
    20  O   -0.614188
    21  C    0.819519
    22  O   -0.637308
    23  N   -0.807219
    24  C   -0.275395
    25  N   -0.842944
    26  C    0.744626
    27  C   -0.588685
    28  O   -0.591652
    29  H    0.186455
    30  H    0.199712
    31  H    0.162932
    32  H    0.391159
    33  H    0.198377
    34  H    0.143701
    35  H    0.212552
    36  H    0.160816
    37  H    0.182865
    38  H    0.163500
    39  H    0.178249
    40  H    0.214467
    41  H    0.168814
    42  H    0.180887
    43  H    0.170998
    44  H    0.172164
    45  H    0.165431
    46  H    0.156748
    47  H    0.205745
    48  H    0.177038
    49  H    0.176941
    50  H    0.184219
    51  H    0.147602
    52  H    0.226990
    53  H    0.389913
    54  H    0.211149
    55  H    0.210560
    56  H    0.176594
    57  H    0.395443
    58  H    0.164179
    59  H    0.198397
    60  H    0.186082
    61  H    0.382473
    62  H    0.218662
    63  H    0.177246
    64  H    0.201072
 Sum of Mulliken atomic charges =   0.00000

 Dipole moment (field-independent basis, Debye):
    X=              2.0722    Y=              0.3166    Z=             -8.3889  Tot=              8.6468
 Quadrupole moment (field-independent basis, Debye-Ang):
   XX=           -187.9352   YY=           -153.8123   ZZ=           -175.8867
   XY=              0.1831   XZ=            -19.0005   YZ=             -4.2889

 Normal termination of Gaussian 09 at Thu Dec  5 18:58:54 2019.
