 Gaussian 09, Revision A.02,
 Gaussian 09:  EM64L-G09RevA.02 11-Jun-2009

 ---------------------------------
 #SP HF/6-31G* Geom=(ModRedundant)
 ---------------------------------

 ------------
 paramfit run
 ------------
 Symbolic Z-matrix:
 Charge =  0 Multiplicity = 1

                         Standard orientation:
 ---------------------------------------------------------------------
 Center     Atomic      Atomic             Coordinates (Angstroms)
 Number     Number       Type             X           Y           Z
 ---------------------------------------------------------------------
      1          6    20001001        4.158423    2.081323    2.256926
      2          7    20001014        4.408035    1.325259    1.047254
      3          6    20001002        4.479561   -0.025446    1.098116
      4          8    20001024        4.126116   -0.654774    2.056641
      5          6    90000001        4.912828   -0.736434   -0.196550
      6          6    90000002        5.389279   -2.155201    0.131988
      7          6    90000002        3.740906   -0.752210   -1.215349
      8          6    90000002        2.429140   -1.461777   -0.834008
      9          6    90000002        1.416254   -0.679098    0.025127
     10          6    20001004        0.979986    0.633648   -0.582034
     11          6    20001004       -0.125404    0.877141   -1.267295
     12          6    90000002       -1.224839   -0.098235   -1.613180
     13          6    90000002       -2.485814    0.032596   -0.740030
     14          6    90000002       -3.782682   -0.127615   -1.544628
     15          6    90000002       -5.120585   -0.195394   -0.763560
     16          6    90000002       -6.256483   -0.292271   -1.794969
     17          7    20001014       -5.113989   -1.393467    0.064758
     18          6    20001002       -6.104006   -1.638860    0.971788
     19          6    20001001       -5.775769   -2.692918    2.004274
     20          8    20001024       -7.157702   -1.065586    0.956811
     21          6    20001002       -5.209838    1.035726    0.166548
     22          8    20001024       -4.672401    1.023503    1.241229
     23          7    20001014       -5.818394    2.139403   -0.318775
     24          6    20001001       -5.981295    3.310441    0.518086
     25          7    20001014        5.978464    0.023047   -0.866654
     26          6    20001002        7.186833    0.295700   -0.296412
     27          6    20001001        8.259294    0.766628   -1.256710
     28          8    20001024        7.386468    0.184000    0.879942
     29          1    20001035        4.978527    1.998271    2.960831
     30          1    20001035        3.258953    1.720417    2.733815
     31          1    20001035        4.020775    3.122065    1.991856
     32          1    20001029        4.931155    1.771218    0.330488
     33          1    20001034        4.622482   -2.716384    0.643876
     34          1    20001034        5.651499   -2.670126   -0.787430
     35          1    20001034        6.255905   -2.121445    0.775996
     36          1    20001034        4.129005   -1.251326   -2.100495
     37          1    20001034        3.528462    0.270277   -1.511438
     38          1    20001034        1.935742   -1.717732   -1.767102
     39          1    20001034        2.646549   -2.403225   -0.340265
     40          1    20001034        1.828237   -0.494497    1.008770
     41          1    20001034        0.558435   -1.324917    0.176452
     42          1    20001033        1.656640    1.458302   -0.426476
     43          1    20001033       -0.273166    1.884876   -1.622820
     44          1    20001034       -0.862568   -1.116152   -1.535264
     45          1    20001034       -1.499950    0.046496   -2.657192
     46          1    20001034       -2.423243   -0.715753    0.045103
     47          1    20001034       -2.475655    0.991517   -0.238834
     48          1    20001034       -3.726971   -1.034884   -2.142370
     49          1    20001034       -3.862101    0.698599   -2.241346
     50          1    20001034       -6.164480   -1.233101   -2.325022
     51          1    20001034       -6.188636    0.502822   -2.530227
     52          1    20001034       -7.227149   -0.265124   -1.322942
     53          1    20001029       -4.213730   -1.718406    0.334313
     54          1    20001034       -6.694314   -3.079508    2.418860
     55          1    20001034       -5.201782   -2.229639    2.801165
     56          1    20001034       -5.189885   -3.504688    1.586958
     57          1    20001029       -6.442778    2.037226   -1.083637
     58          1    20001035       -6.376555    4.115493   -0.087375
     59          1    20001035       -5.023619    3.608466    0.918915
     60          1    20001035       -6.656332    3.122462    1.346786
     61          1    20001029        5.950569    0.015186   -1.861997
     62          1    20001034        9.009765    1.311059   -0.702307
     63          1    20001034        7.858318    1.395403   -2.043736
     64          1    20001034        8.728507   -0.096559   -1.717741
 ---------------------------------------------------------------------

 SCF Done:  E(RHF) =  -1295.61882610     A.U. after   14 cycles

 The electronic state is 1-A.
 Alpha  occ. eigenvalues --  -20.53598 -20.52028 -20.51769 -20.51658 -15.59559
 Alpha  occ. eigenvalues --  -15.58026 -15.57523 -15.57424 -11.35918 -11.34229
 Alpha  occ. eigenvalues --  -11.33782 -11.33747 -11.28980 -11.28606 -11.25156
 Alpha  occ. eigenvalues --  -11.24728 -11.24314 -11.23966 -11.23585 -11.22680
 Alpha  occ. eigenvalues --  -11.22447 -11.22431 -11.22228 -11.22122 -11.21856
 Alpha  occ. eigenvalues --  -11.21814 -11.21574 -11.20834  -1.40533  -1.39388
 Alpha  occ. eigenvalues --   -1.38628  -1.38117  -1.25378  -1.23558  -1.22731
 Alpha  occ. eigenvalues --   -1.21975  -1.10631  -1.09230  -1.07233  -1.04198
 Alpha  occ. eigenvalues --   -1.01257  -0.99328  -0.98699  -0.95395  -0.95229
 Alpha  occ. eigenvalues --   -0.94674  -0.91966  -0.87202  -0.85607  -0.82540
 Alpha  occ. eigenvalues --   -0.81461  -0.79513  -0.78893  -0.77084  -0.76944
 Alpha  occ. eigenvalues --   -0.72057  -0.71367  -0.71108  -0.68901  -0.68095
 Alpha  occ. eigenvalues --   -0.66386  -0.65798  -0.64582  -0.64211  -0.63667
 Alpha  occ. eigenvalues --   -0.62664  -0.62320  -0.61598  -0.61317  -0.61212
 Alpha  occ. eigenvalues --   -0.60788  -0.59766  -0.59325  -0.58705  -0.58413
 Alpha  occ. eigenvalues --   -0.58212  -0.57680  -0.56883  -0.56279  -0.55967
 Alpha  occ. eigenvalues --   -0.55466  -0.55052  -0.54745  -0.54377  -0.53944
 Alpha  occ. eigenvalues --   -0.52799  -0.52743  -0.52532  -0.52014  -0.51708
 Alpha  occ. eigenvalues --   -0.50992  -0.49981  -0.49753  -0.49307  -0.48833
 Alpha  occ. eigenvalues --   -0.48043  -0.46984  -0.46445  -0.44613  -0.42817
 Alpha  occ. eigenvalues --   -0.41885  -0.41527  -0.41044  -0.39222  -0.38900
 Alpha  occ. eigenvalues --   -0.38351  -0.38211  -0.34322
 Alpha virt. eigenvalues --    0.17736   0.18855   0.19617   0.20054   0.20345
 Alpha virt. eigenvalues --    0.21578   0.21600   0.22773   0.23423   0.24182
 Alpha virt. eigenvalues --    0.25501   0.25838   0.26284   0.27014   0.27784

 Mulliken atomic charges:
              1
     1  C   -0.280120
     2  N   -0.783116
     3  C    0.821896
     4  O   -0.628612
     5  C    0.102448
     6  C   -0.472631
     7  C   -0.334171
     8  C   -0.311548
     9  C   -0.370284
    10  C   -0.179979
    11  C   -0.171665
    12  C   -0.353821
    13  C   -0.317176
    14  C   -0.329473
    15  C    0.090500
    16  C   -0.509407
    17  N   -0.787222
    18  C    0.767007
    19  C   -0.595712
    20  O   -0.614276
    21  C    0.819501
    22  O   -0.637218
    23  N   -0.807251
    24  C   -0.275315
    25  N   -0.842938
    26  C    0.744624
    27  C   -0.588696
    28  O   -0.591655
    29  H    0.186451
    30  H    0.199601
    31  H    0.163159
    32  H    0.391224
    33  H    0.198232
    34  H    0.143751
    35  H    0.212594
    36  H    0.160907
    37  H    0.183011
    38  H    0.163699
    39  H    0.178150
    40  H    0.214417
    41  H    0.167954
    42  H    0.181306
    43  H    0.171866
    44  H    0.170408
    45  H    0.164370
    46  H    0.157293
    47  H    0.202872
    48  H    0.176905
    49  H    0.176955
    50  H    0.184343
    51  H    0.147600
    52  H    0.227027
    53  H    0.390132
    54  H    0.211100
    55  H    0.210678
    56  H    0.176786
    57  H    0.395504
    58  H    0.164227
    59  H    0.198068
    60  H    0.186148
    61  H    0.382506
    62  H    0.218698
    63  H    0.177297
    64  H    0.201072
 Sum of Mulliken atomic charges =   0.00000

 Dipole moment (field-independent basis, Debye):
    X=              2.0881    Y=              1.7516    Z=             -8.1783  Tot=              8.6205
 Quadrupole moment (field-independent basis, Debye-Ang):
   XX=           -185.9132   YY=           -155.5236   ZZ=           -175.3975
   XY=              4.0567   XZ=            -17.0365   YZ=             -1.1233

 Normal termination of Gaussian 09 at Thu Dec  5 19:03:58 2019.
