 Gaussian 09, Revision A.02,
 Gaussian 09:  EM64L-G09RevA.02 11-Jun-2009

 ---------------------------------
 #SP HF/6-31G* Geom=(ModRedundant)
 ---------------------------------

 ------------
 paramfit run
 ------------
 Symbolic Z-matrix:
 Charge =  0 Multiplicity = 1

                         Standard orientation:
 ---------------------------------------------------------------------
 Center     Atomic      Atomic             Coordinates (Angstroms)
 Number     Number       Type             X           Y           Z
 ---------------------------------------------------------------------
      1          6    20001001       -3.913229    2.967181   -0.012009
      2          7    20001014       -4.226548    1.578959    0.256163
      3          6    20001002       -4.400766    0.715567   -0.771608
      4          8    20001024       -4.091138    0.983869   -1.899389
      5          6    90000001       -4.894226   -0.695190   -0.403305
      6          6    90000002       -5.475845   -1.376183   -1.646612
      7          6    90000002       -3.732580   -1.524909    0.208043
      8          6    90000002       -2.476766   -1.790765   -0.641596
      9          6    90000002       -1.402318   -0.686514   -0.694789
     10          6    20001004       -0.870403   -0.280583    0.659672
     11          6    20001004        0.246555   -0.685991    1.241744
     12          6    90000002        1.266339   -1.656514    0.695964
     13          6    90000002        2.538428   -0.992397    0.138915
     14          6    90000002        3.531904   -0.598627    1.240215
     15          6    90000002        4.929572   -0.083013    0.809736
     16          6    90000002        5.698073    0.296960    2.085854
     17          7    20001014        5.630400   -1.160110    0.124000
     18          6    20001002        6.829536   -0.951096   -0.493611
     19          6    20001001        7.242129   -2.031345   -1.467078
     20          8    20001024        7.510251    0.014329   -0.284511
     21          6    20001002        4.738100    1.082036   -0.187623
     22          8    20001024        4.548829    0.857345   -1.352792
     23          7    20001014        4.690324    2.333137    0.318783
     24          6    20001001        4.564116    3.473747   -0.565118
     25          7    20001014       -5.902416   -0.623296    0.664316
     26          6    20001002       -7.083256    0.048507    0.546132
     27          6    20001001       -8.121898   -0.287378    1.596144
     28          8    20001024       -7.284339    0.855545   -0.316651
     29          1    20001035       -4.733379    3.478074   -0.503223
     30          1    20001035       -3.041336    3.028524   -0.646645
     31          1    20001035       -3.697946    3.460653    0.927401
     32          1    20001029       -4.718023    1.376167    1.094980
     33          1    20001034       -4.751342   -1.415767   -2.445650
     34          1    20001034       -5.781710   -2.387272   -1.394854
     35          1    20001034       -6.333788   -0.828786   -2.008849
     36          1    20001034       -4.162557   -2.493056    0.455085
     37          1    20001034       -3.444286   -1.070777    1.150875
     38          1    20001034       -2.009525   -2.680350   -0.229355
     39          1    20001034       -2.762727   -2.044006   -1.657209
     40          1    20001034       -1.793555    0.188170   -1.198004
     41          1    20001034       -0.595519   -1.054763   -1.318728
     42          1    20001033       -1.481213    0.424622    1.199773
     43          1    20001033        0.468901   -0.282156    2.217060
     44          1    20001034        0.827802   -2.260784   -0.088899
     45          1    20001034        1.545930   -2.347637    1.490175
     46          1    20001034        2.993722   -1.686442   -0.562073
     47          1    20001034        2.262412   -0.121614   -0.441071
     48          1    20001034        3.704284   -1.451794    1.892846
     49          1    20001034        3.081878    0.174235    1.852187
     50          1    20001034        5.869926   -0.601093    2.667703
     51          1    20001034        5.122278    0.978745    2.703115
     52          1    20001034        6.656351    0.738936    1.857599
     53          1    20001029        5.046612   -1.832278   -0.318825
     54          1    20001034        8.310814   -1.986938   -1.612000
     55          1    20001034        6.753534   -1.844473   -2.418644
     56          1    20001034        6.957924   -3.020256   -1.124058
     57          1    20001029        5.082210    2.495099    1.216282
     58          1    20001035        4.422296    4.362439    0.035744
     59          1    20001035        3.706781    3.343213   -1.208985
     60          1    20001035        5.444155    3.600299   -1.187428
     61          1    20001029       -5.880703   -1.366927    1.326199
     62          1    20001034       -8.825511    0.529413    1.665089
     63          1    20001034       -7.678414   -0.470919    2.568350
     64          1    20001034       -8.658219   -1.181010    1.293515
 ---------------------------------------------------------------------

 SCF Done:  E(RHF) =  -1295.62065255     A.U. after   14 cycles

 The electronic state is 1-A.
 Alpha  occ. eigenvalues --  -20.53618 -20.52054 -20.51796 -20.51600 -15.59576
 Alpha  occ. eigenvalues --  -15.57928 -15.57536 -15.57482 -11.35938 -11.34263
 Alpha  occ. eigenvalues --  -11.33811 -11.33692 -11.28988 -11.28589 -11.25012
 Alpha  occ. eigenvalues --  -11.24834 -11.24336 -11.23964 -11.23489 -11.22651
 Alpha  occ. eigenvalues --  -11.22511 -11.22494 -11.22280 -11.22165 -11.21930
 Alpha  occ. eigenvalues --  -11.21834 -11.21523 -11.20820  -1.40554  -1.39375
 Alpha  occ. eigenvalues --   -1.38655  -1.38098  -1.25397  -1.23564  -1.22638
 Alpha  occ. eigenvalues --   -1.22030  -1.10689  -1.09237  -1.07199  -1.04199
 Alpha  occ. eigenvalues --   -1.01232  -0.99316  -0.98734  -0.95465  -0.95145
 Alpha  occ. eigenvalues --   -0.94597  -0.92097  -0.87224  -0.85664  -0.82736
 Alpha  occ. eigenvalues --   -0.81367  -0.79500  -0.78789  -0.77132  -0.76895
 Alpha  occ. eigenvalues --   -0.71969  -0.71289  -0.71092  -0.68909  -0.68092
 Alpha  occ. eigenvalues --   -0.66515  -0.65803  -0.64521  -0.63974  -0.63747
 Alpha  occ. eigenvalues --   -0.62554  -0.62246  -0.61787  -0.61424  -0.61144
 Alpha  occ. eigenvalues --   -0.60902  -0.59871  -0.59293  -0.58697  -0.58416
 Alpha  occ. eigenvalues --   -0.58228  -0.57765  -0.56604  -0.56340  -0.56161
 Alpha  occ. eigenvalues --   -0.55410  -0.54818  -0.54739  -0.54504  -0.54128
 Alpha  occ. eigenvalues --   -0.53019  -0.52778  -0.52494  -0.52092  -0.51559
 Alpha  occ. eigenvalues --   -0.50994  -0.50176  -0.49804  -0.49294  -0.48714
 Alpha  occ. eigenvalues --   -0.48273  -0.46893  -0.46282  -0.44478  -0.42832
 Alpha  occ. eigenvalues --   -0.41902  -0.41510  -0.41073  -0.39246  -0.38854
 Alpha  occ. eigenvalues --   -0.38298  -0.38264  -0.34426
 Alpha virt. eigenvalues --    0.17369   0.18830   0.19645   0.20023   0.20271
 Alpha virt. eigenvalues --    0.21564   0.22067   0.23129   0.23361   0.24050
 Alpha virt. eigenvalues --    0.25287   0.25674   0.26520   0.26938   0.27718

 Mulliken atomic charges:
              1
     1  C   -0.279789
     2  N   -0.783350
     3  C    0.821873
     4  O   -0.628004
     5  C    0.102362
     6  C   -0.472767
     7  C   -0.334159
     8  C   -0.311887
     9  C   -0.373235
    10  C   -0.177890
    11  C   -0.172937
    12  C   -0.358675
    13  C   -0.315073
    14  C   -0.326278
    15  C    0.090475
    16  C   -0.509533
    17  N   -0.787491
    18  C    0.767259
    19  C   -0.595755
    20  O   -0.613857
    21  C    0.820324
    22  O   -0.638621
    23  N   -0.806365
    24  C   -0.275652
    25  N   -0.843037
    26  C    0.744586
    27  C   -0.588668
    28  O   -0.591711
    29  H    0.186826
    30  H    0.198893
    31  H    0.162223
    32  H    0.391194
    33  H    0.198948
    34  H    0.143895
    35  H    0.212491
    36  H    0.161080
    37  H    0.182191
    38  H    0.163928
    39  H    0.179475
    40  H    0.213940
    41  H    0.174455
    42  H    0.180392
    43  H    0.168217
    44  H    0.176978
    45  H    0.161065
    46  H    0.152228
    47  H    0.203905
    48  H    0.174816
    49  H    0.180452
    50  H    0.183749
    51  H    0.148004
    52  H    0.226805
    53  H    0.389995
    54  H    0.211215
    55  H    0.209775
    56  H    0.176322
    57  H    0.395210
    58  H    0.164404
    59  H    0.199919
    60  H    0.185332
    61  H    0.382526
    62  H    0.218594
    63  H    0.177146
    64  H    0.201269
 Sum of Mulliken atomic charges =   0.00000

 Dipole moment (field-independent basis, Debye):
    X=             -2.4670    Y=             -3.5885    Z=              7.2746  Tot=              8.4784
 Quadrupole moment (field-independent basis, Debye-Ang):
   XX=           -193.9628   YY=           -153.7439   ZZ=           -174.3686
   XY=             11.2000   XZ=            -20.2259   YZ=             10.8079

 Normal termination of Gaussian 09 at Thu Dec  5 18:32:20 2019.
