 Gaussian 09, Revision A.02,
 Gaussian 09:  EM64L-G09RevA.02 11-Jun-2009

 ---------------------------------
 #SP HF/6-31G* Geom=(ModRedundant)
 ---------------------------------

 ------------
 paramfit run
 ------------
 Symbolic Z-matrix:
 Charge =  0 Multiplicity = 1

                         Standard orientation:
 ---------------------------------------------------------------------
 Center     Atomic      Atomic             Coordinates (Angstroms)
 Number     Number       Type             X           Y           Z
 ---------------------------------------------------------------------
      1          6    20001001       -4.094437    1.608594    2.614943
      2          7    20001014       -4.345012    0.628783    1.578397
      3          6    20001002       -4.346462    1.006510    0.278616
      4          8    20001024       -3.930437    2.071858   -0.084292
      5          6    90000001       -4.785421   -0.058479   -0.742413
      6          6    90000002       -5.178521    0.622690   -2.057450
      7          6    90000002       -3.648212   -1.094072   -0.956668
      8          6    90000002       -2.290464   -0.611210   -1.497964
      9          6    90000002       -1.290833   -0.011282   -0.489271
     10          6    20001004       -0.941612   -0.935296    0.653760
     11          6    20001004        0.127007   -1.707004    0.768981
     12          6    90000002        1.262419   -1.855886   -0.215105
     13          6    90000002        2.543100   -1.096319    0.175382
     14          6    90000002        3.582370   -1.067878   -0.953345
     15          6    90000002        4.843811   -0.187013   -0.759732
     16          6    90000002        5.741365   -0.383270   -1.992344
     17          7    20001014        4.428449    1.206723   -0.679075
     18          6    20001002        5.313211    2.197558   -0.365230
     19          6    20001001        4.682854    3.506874    0.050880
     20          8    20001024        6.502515    2.048132   -0.413917
     21          6    20001002        5.511137   -0.571612    0.580225
     22          8    20001024        5.117418   -0.096880    1.611507
     23          7    20001014        6.467337   -1.524834    0.548110
     24          6    20001001        7.168566   -1.896037    1.760004
     25          7    20001014       -5.909471   -0.844172   -0.212669
     26          6    20001002       -7.110744   -0.303742    0.140248
     27          6    20001001       -8.236529   -1.301013    0.319629
     28          8    20001024       -7.265825    0.872506    0.309153
     29          1    20001035       -4.885789    2.347184    2.671485
     30          1    20001035       -3.162730    2.118285    2.417814
     31          1    20001035       -4.018336    1.094909    3.565043
     32          1    20001029       -4.913211   -0.150536    1.815246
     33          1    20001034       -4.367976    1.220384   -2.445664
     34          1    20001034       -5.444361   -0.133211   -2.790376
     35          1    20001034       -6.024178    1.277125   -1.904136
     36          1    20001034       -4.039378   -1.815008   -1.671133
     37          1    20001034       -3.497544   -1.636728   -0.028712
     38          1    20001034       -1.815597   -1.475997   -1.952125
     39          1    20001034       -2.443708    0.103791   -2.299627
     40          1    20001034       -1.679169    0.916116   -0.088658
     41          1    20001034       -0.396966    0.253195   -1.043247
     42          1    20001033       -1.653628   -0.953268    1.462972
     43          1    20001033        0.211909   -2.300889    1.665560
     44          1    20001034        0.954817   -1.519269   -1.197722
     45          1    20001034        1.495506   -2.915096   -0.316786
     46          1    20001034        2.255391   -0.088402    0.461216
     47          1    20001034        2.969694   -1.546871    1.061864
     48          1    20001034        3.107885   -0.731170   -1.872599
     49          1    20001034        3.925219   -2.079927   -1.133792
     50          1    20001034        5.226553    0.007808   -2.862175
     51          1    20001034        5.934113   -1.435400   -2.174696
     52          1    20001034        6.678745    0.142823   -1.890931
     53          1    20001029        3.503107    1.355514   -0.346936
     54          1    20001034        5.399561    4.302632   -0.083882
     55          1    20001034        4.423114    3.446629    1.103511
     56          1    20001034        3.781886    3.723549   -0.512762
     57          1    20001029        6.922456   -1.708963   -0.314603
     58          1    20001035        7.798458   -2.749726    1.546997
     59          1    20001035        6.456103   -2.166104    2.525566
     60          1    20001035        7.782986   -1.083704    2.134649
     61          1    20001029       -5.913844   -1.808566   -0.460610
     62          1    20001034       -8.994993   -0.861545    0.950956
     63          1    20001034       -7.893855   -2.233160    0.754632
     64          1    20001034       -8.676360   -1.519497   -0.648159
 ---------------------------------------------------------------------

 SCF Done:  E(RHF) =  -1295.62270469     A.U. after   14 cycles

 The electronic state is 1-A.
 Alpha  occ. eigenvalues --  -20.53672 -20.51940 -20.51904 -20.51670 -15.59640
 Alpha  occ. eigenvalues --  -15.58035 -15.57547 -15.57429 -11.35990 -11.34134
 Alpha  occ. eigenvalues --  -11.33910 -11.33755 -11.29082 -11.28613 -11.25187
 Alpha  occ. eigenvalues --  -11.24866 -11.24367 -11.24071 -11.23552 -11.22817
 Alpha  occ. eigenvalues --  -11.22538 -11.22291 -11.22291 -11.22214 -11.21957
 Alpha  occ. eigenvalues --  -11.21812 -11.21780 -11.20928  -1.40611  -1.39353
 Alpha  occ. eigenvalues --   -1.38760  -1.38082  -1.25466  -1.23487  -1.22738
 Alpha  occ. eigenvalues --   -1.22095  -1.10721  -1.09261  -1.07283  -1.04247
 Alpha  occ. eigenvalues --   -1.01306  -0.99381  -0.98622  -0.95521  -0.95305
 Alpha  occ. eigenvalues --   -0.94714  -0.92010  -0.87273  -0.85630  -0.82536
 Alpha  occ. eigenvalues --   -0.81519  -0.79461  -0.78993  -0.77203  -0.76915
 Alpha  occ. eigenvalues --   -0.72028  -0.71379  -0.71200  -0.68982  -0.67696
 Alpha  occ. eigenvalues --   -0.66931  -0.65912  -0.64687  -0.64220  -0.63682
 Alpha  occ. eigenvalues --   -0.62775  -0.62453  -0.61568  -0.61260  -0.61217
 Alpha  occ. eigenvalues --   -0.60908  -0.59791  -0.59432  -0.58664  -0.58368
 Alpha  occ. eigenvalues --   -0.58233  -0.57823  -0.57064  -0.56432  -0.55807
 Alpha  occ. eigenvalues --   -0.55585  -0.55031  -0.54606  -0.54513  -0.53625
 Alpha  occ. eigenvalues --   -0.53111  -0.52844  -0.52421  -0.51927  -0.51680
 Alpha  occ. eigenvalues --   -0.51086  -0.50182  -0.49683  -0.49264  -0.48841
 Alpha  occ. eigenvalues --   -0.47646  -0.47567  -0.46975  -0.44603  -0.42902
 Alpha  occ. eigenvalues --   -0.41989  -0.41518  -0.40970  -0.39327  -0.38876
 Alpha  occ. eigenvalues --   -0.38345  -0.38338  -0.34458
 Alpha virt. eigenvalues --    0.17705   0.18784   0.19611   0.19963   0.20254
 Alpha virt. eigenvalues --    0.21299   0.21662   0.23008   0.23374   0.24112
 Alpha virt. eigenvalues --    0.25156   0.25453   0.26246   0.27082   0.27808

 Mulliken atomic charges:
              1
     1  C   -0.279834
     2  N   -0.783072
     3  C    0.821973
     4  O   -0.629416
     5  C    0.102389
     6  C   -0.472621
     7  C   -0.334461
     8  C   -0.311204
     9  C   -0.370125
    10  C   -0.181624
    11  C   -0.169994
    12  C   -0.350756
    13  C   -0.316513
    14  C   -0.324831
    15  C    0.090833
    16  C   -0.509673
    17  N   -0.787338
    18  C    0.766579
    19  C   -0.595727
    20  O   -0.614836
    21  C    0.819120
    22  O   -0.637927
    23  N   -0.807032
    24  C   -0.275061
    25  N   -0.842967
    26  C    0.744579
    27  C   -0.588747
    28  O   -0.591761
    29  H    0.186794
    30  H    0.197861
    31  H    0.163950
    32  H    0.391689
    33  H    0.197874
    34  H    0.144159
    35  H    0.212750
    36  H    0.161509
    37  H    0.183512
    38  H    0.164928
    39  H    0.178300
    40  H    0.212856
    41  H    0.165215
    42  H    0.182322
    43  H    0.174720
    44  H    0.164959
    45  H    0.164349
    46  H    0.161897
    47  H    0.192194
    48  H    0.176555
    49  H    0.176378
    50  H    0.184990
    51  H    0.147608
    52  H    0.227188
    53  H    0.391857
    54  H    0.210761
    55  H    0.209846
    56  H    0.179180
    57  H    0.395781
    58  H    0.164479
    59  H    0.197010
    60  H    0.186219
    61  H    0.382756
    62  H    0.218844
    63  H    0.177545
    64  H    0.201212
 Sum of Mulliken atomic charges =   0.00000

 Dipole moment (field-independent basis, Debye):
    X=             -2.5593    Y=             -7.6920    Z=             -1.3235  Tot=              8.2139
 Quadrupole moment (field-independent basis, Debye-Ang):
   XX=           -176.9709   YY=           -170.2202   ZZ=           -167.5924
   XY=             13.6544   XZ=             -9.3606   YZ=              2.4730

 Normal termination of Gaussian 09 at Thu Dec  5 18:21:42 2019.
