 Gaussian 09, Revision A.02,
 Gaussian 09:  EM64L-G09RevA.02 11-Jun-2009

 ---------------------------------
 #SP HF/6-31G* Geom=(ModRedundant)
 ---------------------------------

 ------------
 paramfit run
 ------------
 Symbolic Z-matrix:
 Charge =  0 Multiplicity = 1

                         Standard orientation:
 ---------------------------------------------------------------------
 Center     Atomic      Atomic             Coordinates (Angstroms)
 Number     Number       Type             X           Y           Z
 ---------------------------------------------------------------------
      1          6    20001001       -4.149186    0.489544    3.044475
      2          7    20001014       -4.392903   -0.011548    1.707780
      3          6    20001002       -4.419101    0.845084    0.660113
      4          8    20001024       -4.029983    1.977155    0.742263
      5          6    90000001       -4.849182    0.255023   -0.694968
      6          6    90000002       -5.273394    1.387260   -1.636205
      7          6    90000002       -3.693665   -0.586033   -1.302427
      8          6    90000002       -2.353369    0.102942   -1.616366
      9          6    90000002       -1.353318    0.283647   -0.457107
     10          6    20001004       -0.970185   -1.005609    0.230866
     11          6    20001004        0.115591   -1.734709    0.030219
     12          6    90000002        1.240927   -1.458650   -0.937852
     13          6    90000002        2.510587   -0.882118   -0.285823
     14          6    90000002        3.705578   -0.844216   -1.247838
     15          6    90000002        4.996462   -0.125077   -0.777622
     16          6    90000002        6.047648   -0.283713   -1.888158
     17          7    20001014        4.698153    1.288242   -0.590343
     18          6    20001002        5.609772    2.142877   -0.041155
     19          6    20001001        5.042067    3.459997    0.436034
     20          8    20001024        6.775110    1.875996    0.058367
     21          6    20001002        5.419092   -0.715581    0.586714
     22          8    20001024        4.918763   -0.313051    1.602376
     23          7    20001014        6.281560   -1.754803    0.574621
     24          6    20001001        6.757937   -2.322178    1.819352
     25          7    20001014       -5.949730   -0.702306   -0.511272
     26          6    20001002       -7.157234   -0.372542    0.029894
     27          6    20001001       -8.259701   -1.387234   -0.191660
     28          8    20001024       -7.334419    0.639368    0.646971
     29          1    20001035       -4.954854    1.127583    3.389081
     30          1    20001035       -3.230877    1.058060    3.059321
     31          1    20001035       -4.050097   -0.353324    3.716866
     32          1    20001029       -4.941714   -0.834833    1.622375
     33          1    20001034       -4.480521    2.108658   -1.762183
     34          1    20001034       -5.533052    0.972777   -2.605750
     35          1    20001034       -6.130348    1.908672   -1.235350
     36          1    20001034       -4.079095   -0.978618   -2.240799
     37          1    20001034       -3.519721   -1.445070   -0.662053
     38          1    20001034       -1.866657   -0.503019   -2.375009
     39          1    20001034       -2.531811    1.070946   -2.072986
     40          1    20001034       -1.755519    0.970263    0.276484
     41          1    20001034       -0.472410    0.765532   -0.866523
     42          1    20001033       -1.671076   -1.356387    0.971015
     43          1    20001033        0.224440   -2.630157    0.621900
     44          1    20001034        0.913650   -0.771488   -1.708671
     45          1    20001034        1.494548   -2.387371   -1.447507
     46          1    20001034        2.273268    0.114792    0.075043
     47          1    20001034        2.758241   -1.465178    0.591411
     48          1    20001034        3.405637   -0.365312   -2.177473
     49          1    20001034        3.981054   -1.862017   -1.497928
     50          1    20001034        5.705383    0.247995   -2.768341
     51          1    20001034        6.172059   -1.325278   -2.165729
     52          1    20001034        7.001943    0.128066   -1.595757
     53          1    20001029        3.750260    1.497218   -0.374609
     54          1    20001034        5.838174    4.186273    0.497650
     55          1    20001034        4.623341    3.317209    1.427703
     56          1    20001034        4.258300    3.827456   -0.217468
     57          1    20001029        6.842720   -1.894012   -0.232244
     58          1    20001035        7.334918   -3.209926    1.595933
     59          1    20001035        5.917871   -2.595110    2.440982
     60          1    20001035        7.378491   -1.622221    2.369558
     61          1    20001029       -5.937366   -1.492250   -1.117393
     62          1    20001034       -9.018813   -1.248715    0.564340
     63          1    20001034       -7.892166   -2.406718   -0.158206
     64          1    20001034       -8.707483   -1.219619   -1.165928
 ---------------------------------------------------------------------

 SCF Done:  E(RHF) =  -1295.62300903     A.U. after   14 cycles

 The electronic state is 1-A.
 Alpha  occ. eigenvalues --  -20.53641 -20.51981 -20.51848 -20.51672 -15.59607
 Alpha  occ. eigenvalues --  -15.58039 -15.57492 -15.57477 -11.35961 -11.34177
 Alpha  occ. eigenvalues --  -11.33857 -11.33758 -11.29043 -11.28630 -11.25183
 Alpha  occ. eigenvalues --  -11.24796 -11.24344 -11.24033 -11.23558 -11.22772
 Alpha  occ. eigenvalues --  -11.22553 -11.22347 -11.22322 -11.22169 -11.21910
 Alpha  occ. eigenvalues --  -11.21838 -11.21712 -11.20894  -1.40579  -1.39373
 Alpha  occ. eigenvalues --   -1.38705  -1.38103  -1.25430  -1.23525  -1.22743
 Alpha  occ. eigenvalues --   -1.22041  -1.10684  -1.09251  -1.07270  -1.04233
 Alpha  occ. eigenvalues --   -1.01292  -0.99362  -0.98658  -0.95462  -0.95282
 Alpha  occ. eigenvalues --   -0.94707  -0.91992  -0.87249  -0.85624  -0.82524
 Alpha  occ. eigenvalues --   -0.81493  -0.79488  -0.78959  -0.77150  -0.76936
 Alpha  occ. eigenvalues --   -0.72044  -0.71382  -0.71163  -0.68950  -0.67887
 Alpha  occ. eigenvalues --   -0.66715  -0.65871  -0.64648  -0.64243  -0.63649
 Alpha  occ. eigenvalues --   -0.62761  -0.62406  -0.61569  -0.61265  -0.61225
 Alpha  occ. eigenvalues --   -0.60836  -0.59752  -0.59406  -0.58676  -0.58366
 Alpha  occ. eigenvalues --   -0.58255  -0.57774  -0.57020  -0.56361  -0.55863
 Alpha  occ. eigenvalues --   -0.55571  -0.55055  -0.54676  -0.54446  -0.53726
 Alpha  occ. eigenvalues --   -0.52905  -0.52811  -0.52370  -0.51949  -0.51782
 Alpha  occ. eigenvalues --   -0.51050  -0.50106  -0.49698  -0.49247  -0.48890
 Alpha  occ. eigenvalues --   -0.47908  -0.47334  -0.46859  -0.44633  -0.42868
 Alpha  occ. eigenvalues --   -0.41948  -0.41530  -0.41004  -0.39284  -0.38893
 Alpha  occ. eigenvalues --   -0.38353  -0.38283  -0.34405
 Alpha virt. eigenvalues --    0.17731   0.18813   0.19625   0.20002   0.20291
 Alpha virt. eigenvalues --    0.21336   0.21641   0.22870   0.23386   0.24199
 Alpha virt. eigenvalues --    0.25345   0.25629   0.26186   0.27059   0.27874

 Mulliken atomic charges:
              1
     1  C   -0.280015
     2  N   -0.783073
     3  C    0.821935
     4  O   -0.629167
     5  C    0.102430
     6  C   -0.472606
     7  C   -0.334372
     8  C   -0.311356
     9  C   -0.370407
    10  C   -0.180377
    11  C   -0.169573
    12  C   -0.349039
    13  C   -0.316292
    14  C   -0.325302
    15  C    0.090813
    16  C   -0.509543
    17  N   -0.787306
    18  C    0.766689
    19  C   -0.595624
    20  O   -0.614600
    21  C    0.819343
    22  O   -0.637453
    23  N   -0.807139
    24  C   -0.275134
    25  N   -0.842946
    26  C    0.744603
    27  C   -0.588730
    28  O   -0.591705
    29  H    0.186598
    30  H    0.198720
    31  H    0.163758
    32  H    0.391502
    33  H    0.197914
    34  H    0.143997
    35  H    0.212710
    36  H    0.161289
    37  H    0.183370
    38  H    0.164504
    39  H    0.178150
    40  H    0.213690
    41  H    0.165971
    42  H    0.182317
    43  H    0.173850
    44  H    0.165876
    45  H    0.161848
    46  H    0.159259
    47  H    0.194072
    48  H    0.176262
    49  H    0.176592
    50  H    0.184697
    51  H    0.147658
    52  H    0.227146
    53  H    0.391139
    54  H    0.210893
    55  H    0.210527
    56  H    0.177953
    57  H    0.395676
    58  H    0.164397
    59  H    0.197329
    60  H    0.186226
    61  H    0.382654
    62  H    0.218803
    63  H    0.177461
    64  H    0.201138
 Sum of Mulliken atomic charges =   0.00000

 Dipole moment (field-independent basis, Debye):
    X=             -2.2993    Y=             -7.0239    Z=             -4.0417  Tot=              8.4237
 Quadrupole moment (field-independent basis, Debye-Ang):
   XX=           -179.8244   YY=           -167.5573   ZZ=           -167.7458
   XY=             14.5380   XZ=              1.4674   YZ=             -3.0894

 Normal termination of Gaussian 09 at Thu Dec  5 19:19:02 2019.
