 Gaussian 09, Revision A.02,
 Gaussian 09:  EM64L-G09RevA.02 11-Jun-2009

 ---------------------------------
 #SP HF/6-31G* Geom=(ModRedundant)
 ---------------------------------

 ------------
 paramfit run
 ------------
 Symbolic Z-matrix:
 Charge =  0 Multiplicity = 1

                         Standard orientation:
 ---------------------------------------------------------------------
 Center     Atomic      Atomic             Coordinates (Angstroms)
 Number     Number       Type             X           Y           Z
 ---------------------------------------------------------------------
      1          6    20001001       -4.162150   -0.438956    3.052372
      2          7    20001014       -4.405818   -0.513285    1.626768
      3          6    20001002       -4.446256    0.620712    0.888849
      4          8    20001024       -4.069743    1.678992    1.310782
      5          6    90000001       -4.875335    0.464940   -0.581189
      6          6    90000002       -5.316451    1.824326   -1.133753
      7          6    90000002       -3.712886   -0.137736   -1.416112
      8          6    90000002       -2.381894    0.630306   -1.506709
      9          6    90000002       -1.379045    0.462512   -0.347926
     10          6    20001004       -0.978291   -0.970036   -0.084332
     11          6    20001004        0.114876   -1.590470   -0.497617
     12          6    90000002        1.232856   -1.019731   -1.336741
     13          6    90000002        2.498613   -0.653079   -0.541135
     14          6    90000002        3.746537   -0.549447   -1.428186
     15          6    90000002        5.053299   -0.014620   -0.787109
     16          6    90000002        6.153421   -0.069557   -1.859567
     17          7    20001014        4.839233    1.368026   -0.382147
     18          6    20001002        5.772666    2.051775    0.341902
     19          6    20001001        5.267275    3.312984    1.004276
     20          8    20001024        6.910118    1.685826    0.448795
     21          6    20001002        5.357094   -0.848230    0.478406
     22          8    20001024        4.827326   -0.579183    1.522862
     23          7    20001014        6.147962   -1.933383    0.333656
     24          6    20001001        6.513671   -2.728886    1.487621
     25          7    20001014       -5.964088   -0.516277   -0.696340
     26          6    20001002       -7.172965   -0.381193   -0.079865
     27          6    20001001       -8.264706   -1.293989   -0.598539
     28          8    20001024       -7.359064    0.393238    0.815548
     29          1    20001035       -4.973577    0.054410    3.574987
     30          1    20001035       -3.250338    0.109324    3.238678
     31          1    20001035       -4.050582   -1.444965    3.436888
     32          1    20001029       -4.945550   -1.278347    1.295628
     33          1    20001034       -4.532410    2.559501   -1.035101
     34          1    20001034       -5.575484    1.720793   -2.183239
     35          1    20001034       -6.177589    2.188875   -0.592947
     36          1    20001034       -4.097799   -0.231407   -2.429171
     37          1    20001034       -3.526420   -1.148513   -1.067056
     38          1    20001034       -1.891528    0.289380   -2.413863
     39          1    20001034       -2.573319    1.689023   -1.647591
     40          1    20001034       -1.785934    0.888914    0.559811
     41          1    20001034       -0.505448    1.056673   -0.592127
     42          1    20001033       -1.671973   -1.537561    0.514695
     43          1    20001033        0.236461   -2.621937   -0.205975
     44          1    20001034        0.894474   -0.134939   -1.862201
     45          1    20001034        1.494892   -1.746607   -2.104583
     46          1    20001034        2.307738    0.287164   -0.031346
     47          1    20001034        2.656454   -1.387383    0.237783
     48          1    20001034        3.532695    0.094774   -2.278355
     49          1    20001034        3.967701   -1.531040   -1.830568
     50          1    20001034        5.898093    0.621779   -2.654201
     51          1    20001034        6.224094   -1.058775   -2.299832
     52          1    20001034        7.114655    0.216830   -1.459882
     53          1    20001029        3.896519    1.609669   -0.178159
     54          1    20001034        6.105003    3.958037    1.221483
     55          1    20001034        4.783975    3.043239    1.938505
     56          1    20001034        4.548280    3.839046    0.385658
     57          1    20001029        6.743864   -1.981698   -0.458730
     58          1    20001035        7.042288   -3.609402    1.146773
     59          1    20001035        5.623173   -3.035225    2.016580
     60          1    20001035        7.146833   -2.175712    2.173810
     61          1    20001029       -5.945285   -1.084581   -1.513790
     62          1    20001034       -9.022125   -1.400897    0.164259
     63          1    20001034       -7.885415   -2.270915   -0.876575
     64          1    20001034       -8.718516   -0.843827   -1.475587
 ---------------------------------------------------------------------

 SCF Done:  E(RHF) =  -1295.62199986     A.U. after   14 cycles

 The electronic state is 1-A.
 Alpha  occ. eigenvalues --  -20.53626 -20.51999 -20.51819 -20.51669 -15.59590
 Alpha  occ. eigenvalues --  -15.58037 -15.57496 -15.57465 -11.35945 -11.34197
 Alpha  occ. eigenvalues --  -11.33830 -11.33756 -11.29021 -11.28626 -11.25177
 Alpha  occ. eigenvalues --  -11.24767 -11.24333 -11.24011 -11.23566 -11.22743
 Alpha  occ. eigenvalues --  -11.22528 -11.22377 -11.22304 -11.22150 -11.21878
 Alpha  occ. eigenvalues --  -11.21846 -11.21668 -11.20874  -1.40562  -1.39380
 Alpha  occ. eigenvalues --   -1.38677  -1.38110  -1.25411  -1.23540  -1.22742
 Alpha  occ. eigenvalues --   -1.22016  -1.10665  -1.09245  -1.07259  -1.04222
 Alpha  occ. eigenvalues --   -1.01281  -0.99351  -0.98674  -0.95435  -0.95266
 Alpha  occ. eigenvalues --   -0.94699  -0.91981  -0.87233  -0.85618  -0.82524
 Alpha  occ. eigenvalues --   -0.81482  -0.79499  -0.78938  -0.77125  -0.76941
 Alpha  occ. eigenvalues --   -0.72052  -0.71381  -0.71144  -0.68934  -0.67972
 Alpha  occ. eigenvalues --   -0.66594  -0.65847  -0.64625  -0.64242  -0.63647
 Alpha  occ. eigenvalues --   -0.62737  -0.62379  -0.61575  -0.61276  -0.61223
 Alpha  occ. eigenvalues --   -0.60809  -0.59749  -0.59382  -0.58686  -0.58381
 Alpha  occ. eigenvalues --   -0.58247  -0.57739  -0.56983  -0.56329  -0.55897
 Alpha  occ. eigenvalues --   -0.55546  -0.55062  -0.54704  -0.54416  -0.53790
 Alpha  occ. eigenvalues --   -0.52838  -0.52795  -0.52400  -0.51974  -0.51783
 Alpha  occ. eigenvalues --   -0.51030  -0.50056  -0.49709  -0.49261  -0.48886
 Alpha  occ. eigenvalues --   -0.47990  -0.47182  -0.46757  -0.44639  -0.42850
 Alpha  occ. eigenvalues --   -0.41925  -0.41532  -0.41019  -0.39261  -0.38898
 Alpha  occ. eigenvalues --   -0.38354  -0.38256  -0.34375
 Alpha virt. eigenvalues --    0.17737   0.18829   0.19625   0.20021   0.20313
 Alpha virt. eigenvalues --    0.21388   0.21628   0.22816   0.23402   0.24206
 Alpha virt. eigenvalues --    0.25425   0.25723   0.26187   0.27042   0.27888

 Mulliken atomic charges:
              1
     1  C   -0.280076
     2  N   -0.783083
     3  C    0.821917
     4  O   -0.628991
     5  C    0.102444
     6  C   -0.472609
     7  C   -0.334311
     8  C   -0.311429
     9  C   -0.370451
    10  C   -0.180027
    11  C   -0.170169
    12  C   -0.349682
    13  C   -0.316506
    14  C   -0.326604
    15  C    0.090719
    16  C   -0.509488
    17  N   -0.787291
    18  C    0.766791
    19  C   -0.595645
    20  O   -0.614481
    21  C    0.819428
    22  O   -0.637294
    23  N   -0.807196
    24  C   -0.275183
    25  N   -0.842939
    26  C    0.744613
    27  C   -0.588719
    28  O   -0.591682
    29  H    0.186526
    30  H    0.199090
    31  H    0.163588
    32  H    0.391402
    33  H    0.197991
    34  H    0.143908
    35  H    0.212677
    36  H    0.161159
    37  H    0.183267
    38  H    0.164234
    39  H    0.178110
    40  H    0.214030
    41  H    0.166553
    42  H    0.182087
    43  H    0.173271
    44  H    0.167137
    45  H    0.161981
    46  H    0.158451
    47  H    0.196476
    48  H    0.176406
    49  H    0.176764
    50  H    0.184581
    51  H    0.147644
    52  H    0.227111
    53  H    0.390788
    54  H    0.210968
    55  H    0.210690
    56  H    0.177454
    57  H    0.395620
    58  H    0.164343
    59  H    0.197535
    60  H    0.186215
    61  H    0.382600
    62  H    0.218772
    63  H    0.177408
    64  H    0.201108
 Sum of Mulliken atomic charges =   0.00000

 Dipole moment (field-independent basis, Debye):
    X=             -2.2036    Y=             -5.7080    Z=             -5.9105  Tot=              8.5071
 Quadrupole moment (field-independent basis, Debye-Ang):
   XX=           -181.7291   YY=           -163.4506   ZZ=           -170.3731
   XY=             12.7586   XZ=              7.9290   YZ=             -4.2929

 Normal termination of Gaussian 09 at Thu Dec  5 19:14:03 2019.
