 Gaussian 09, Revision A.02,
 Gaussian 09:  EM64L-G09RevA.02 11-Jun-2009

 ---------------------------------
 #SP HF/6-31G* Geom=(ModRedundant)
 ---------------------------------

 ------------
 paramfit run
 ------------
 Symbolic Z-matrix:
 Charge =  0 Multiplicity = 1

                         Standard orientation:
 ---------------------------------------------------------------------
 Center     Atomic      Atomic             Coordinates (Angstroms)
 Number     Number       Type             X           Y           Z
 ---------------------------------------------------------------------
      1          6    20001001        3.569248    2.971981   -0.263896
      2          7    20001014        3.951285    1.582708   -0.409544
      3          6    20001002        3.965666    0.769590    0.672464
      4          8    20001024        3.463690    1.077576    1.717888
      5          6    90000001        4.542647   -0.641512    0.459697
      6          6    90000002        4.918169   -1.251886    1.814049
      7          6    90000002        3.518550   -1.528698   -0.299072
      8          6    90000002        2.142257   -1.792388    0.338048
      9          6    90000002        1.052500   -0.717079    0.157001
     10          6    20001004        0.750332   -0.384821   -1.285419
     11          6    20001004       -0.243199   -0.845752   -2.027844
     12          6    90000002       -1.321228   -1.819740   -1.616803
     13          6    90000002       -2.682478   -1.167743   -1.314374
     14          6    90000002       -2.830319   -0.760796    0.157852
     15          6    90000002       -4.078276    0.065635    0.563144
     16          6    90000002       -4.016818    0.284865    2.083543
     17          7    20001014       -4.022301    1.353314   -0.115295
     18          6    20001002       -5.063426    2.234272   -0.060266
     19          6    20001001       -5.025192    3.332097   -1.098593
     20          8    20001024       -5.945583    2.150250    0.748364
     21          6    20001002       -5.341470   -0.681990    0.079279
     22          8    20001024       -5.723321   -0.556604   -1.053152
     23          7    20001014       -5.921956   -1.545051    0.940755
     24          6    20001001       -7.137495   -2.239895    0.569461
     25          7    20001014        5.715866   -0.587792   -0.424667
     26          6    20001002        6.845793    0.120957   -0.140742
     27          6    20001001        8.054188   -0.230963   -0.983389
     28          8    20001024        6.881227    0.969705    0.704546
     29          1    20001035        4.283664    3.526115    0.334013
     30          1    20001035        2.601187    3.036435    0.210895
     31          1    20001035        3.506805    3.418337   -1.248386
     32          1    20001029        4.582041    1.357644   -1.142877
     33          1    20001034        4.069426   -1.277054    2.480333
     34          1    20001034        5.282526   -2.264022    1.665509
     35          1    20001034        5.690996   -0.665810    2.289632
     36          1    20001034        4.003530   -2.494304   -0.424051
     37          1    20001034        3.385541   -1.123802   -1.297394
     38          1    20001034        1.769720   -2.711528   -0.104687
     39          1    20001034        2.256587   -1.993585    1.398153
     40          1    20001034        1.335001    0.188994    0.677181
     41          1    20001034        0.158989   -1.080311    0.652515
     42          1    20001033        1.429757    0.313105   -1.747365
     43          1    20001033       -0.304709   -0.490659   -3.044647
     44          1    20001034       -1.010354   -2.377222   -0.741568
     45          1    20001034       -1.447980   -2.551945   -2.413298
     46          1    20001034       -2.787772   -0.304956   -1.966207
     47          1    20001034       -3.475166   -1.849662   -1.592695
     48          1    20001034       -1.962246   -0.179123    0.460573
     49          1    20001034       -2.830632   -1.657413    0.766479
     50          1    20001034       -3.155217    0.901872    2.310537
     51          1    20001034       -3.891581   -0.654843    2.611414
     52          1    20001034       -4.898324    0.789488    2.449661
     53          1    20001029       -3.516789    1.360555   -0.971517
     54          1    20001034       -5.635251    4.156977   -0.763237
     55          1    20001034       -5.439740    2.946443   -2.025170
     56          1    20001034       -4.014931    3.676152   -1.291934
     57          1    20001029       -5.735392   -1.442486    1.910283
     58          1    20001035       -7.369327   -2.965332    1.338171
     59          1    20001035       -6.991240   -2.755011   -0.368564
     60          1    20001035       -7.973872   -1.557240    0.458964
     61          1    20001029        5.821771   -1.359582   -1.044886
     62          1    20001034        8.742796    0.601287   -0.971072
     63          1    20001034        7.786027   -0.468469   -2.006732
     64          1    20001034        8.549099   -1.095505   -0.552772
 ---------------------------------------------------------------------

 SCF Done:  E(RHF) =  -1295.62032330     A.U. after   14 cycles

 The electronic state is 1-A.
 Alpha  occ. eigenvalues --  -20.53748 -20.52012 -20.51841 -20.51571 -15.59719
 Alpha  occ. eigenvalues --  -15.57913 -15.57676 -15.57282 -11.36065 -11.34048
 Alpha  occ. eigenvalues --  -11.34018 -11.33629 -11.29169 -11.28384 -11.25094
 Alpha  occ. eigenvalues --  -11.25028 -11.24431 -11.24156 -11.23275 -11.22903
 Alpha  occ. eigenvalues --  -11.22500 -11.22405 -11.22323 -11.22258 -11.22165
 Alpha  occ. eigenvalues --  -11.21884 -11.21539 -11.21001  -1.40690  -1.39250
 Alpha  occ. eigenvalues --   -1.38866  -1.37984  -1.25551  -1.23335  -1.22620
 Alpha  occ. eigenvalues --   -1.22220  -1.10890  -1.09257  -1.07206  -1.04261
 Alpha  occ. eigenvalues --   -1.01292  -0.99421  -0.98593  -0.95656  -0.95341
 Alpha  occ. eigenvalues --   -0.94615  -0.92102  -0.87322  -0.85597  -0.82606
 Alpha  occ. eigenvalues --   -0.81542  -0.79354  -0.79056  -0.77322  -0.76782
 Alpha  occ. eigenvalues --   -0.72097  -0.71339  -0.71287  -0.69074  -0.67895
 Alpha  occ. eigenvalues --   -0.66494  -0.65973  -0.64488  -0.64118  -0.63895
 Alpha  occ. eigenvalues --   -0.62723  -0.62454  -0.61730  -0.61305  -0.61067
 Alpha  occ. eigenvalues --   -0.60977  -0.60048  -0.59305  -0.58769  -0.58513
 Alpha  occ. eigenvalues --   -0.58290  -0.57521  -0.56883  -0.56725  -0.55777
 Alpha  occ. eigenvalues --   -0.55371  -0.54833  -0.54819  -0.54617  -0.54076
 Alpha  occ. eigenvalues --   -0.53240  -0.52921  -0.52653  -0.51920  -0.51612
 Alpha  occ. eigenvalues --   -0.51172  -0.50011  -0.49698  -0.49210  -0.48484
 Alpha  occ. eigenvalues --   -0.48252  -0.47131  -0.46380  -0.44980  -0.42986
 Alpha  occ. eigenvalues --   -0.42078  -0.41381  -0.40867  -0.39421  -0.38756
 Alpha  occ. eigenvalues --   -0.38466  -0.38208  -0.34696
 Alpha virt. eigenvalues --    0.17549   0.18706   0.19754   0.19892   0.20141
 Alpha virt. eigenvalues --    0.21672   0.21995   0.23190   0.23289   0.24083
 Alpha virt. eigenvalues --    0.25330   0.25616   0.26457   0.26982   0.27429

 Mulliken atomic charges:
              1
     1  C   -0.279720
     2  N   -0.783401
     3  C    0.821948
     4  O   -0.629067
     5  C    0.102381
     6  C   -0.472675
     7  C   -0.334834
     8  C   -0.311015
     9  C   -0.373634
    10  C   -0.182975
    11  C   -0.177766
    12  C   -0.355986
    13  C   -0.313214
    14  C   -0.333880
    15  C    0.091034
    16  C   -0.510695
    17  N   -0.785904
    18  C    0.767472
    19  C   -0.595885
    20  O   -0.614691
    21  C    0.819185
    22  O   -0.640388
    23  N   -0.806986
    24  C   -0.274896
    25  N   -0.843094
    26  C    0.744481
    27  C   -0.588747
    28  O   -0.591771
    29  H    0.187510
    30  H    0.197241
    31  H    0.163079
    32  H    0.391801
    33  H    0.197930
    34  H    0.144450
    35  H    0.212876
    36  H    0.162053
    37  H    0.183083
    38  H    0.165682
    39  H    0.178643
    40  H    0.212545
    41  H    0.169210
    42  H    0.181651
    43  H    0.173184
    44  H    0.168528
    45  H    0.174669
    46  H    0.155043
    47  H    0.193390
    48  H    0.192784
    49  H    0.174762
    50  H    0.188851
    51  H    0.147531
    52  H    0.226142
    53  H    0.391507
    54  H    0.210840
    55  H    0.207770
    56  H    0.178019
    57  H    0.396299
    58  H    0.164644
    59  H    0.196436
    60  H    0.185761
    61  H    0.382922
    62  H    0.218890
    63  H    0.177539
    64  H    0.201457
 Sum of Mulliken atomic charges =   0.00000

 Dipole moment (field-independent basis, Debye):
    X=              4.1981    Y=             -4.3719    Z=             -4.0337  Tot=              7.2807
 Quadrupole moment (field-independent basis, Debye-Ang):
   XX=           -183.3630   YY=           -163.1360   ZZ=           -173.2582
   XY=             -4.5255   XZ=            -32.6833   YZ=            -15.2414

 Normal termination of Gaussian 09 at Thu Dec  5 19:05:24 2019.
