 Gaussian 09, Revision A.02,
 Gaussian 09:  EM64L-G09RevA.02 11-Jun-2009

 ---------------------------------
 #SP HF/6-31G* Geom=(ModRedundant)
 ---------------------------------

 ------------
 paramfit run
 ------------
 Symbolic Z-matrix:
 Charge =  0 Multiplicity = 1

                         Standard orientation:
 ---------------------------------------------------------------------
 Center     Atomic      Atomic             Coordinates (Angstroms)
 Number     Number       Type             X           Y           Z
 ---------------------------------------------------------------------
      1          6    20001001        4.114645    2.704000    1.390835
      2          7    20001014        4.377845    1.575265    0.522545
      3          6    20001002        4.482963    0.331314    1.045657
      4          8    20001024        4.149178    0.073268    2.168931
      5          6    90000001        4.928292   -0.781274    0.079626
      6          6    90000002        5.441045   -1.982116    0.881441
      7          6    90000002        3.752891   -1.180987   -0.853254
      8          6    90000002        2.460671   -1.738560   -0.229622
      9          6    90000002        1.432322   -0.725183    0.310933
     10          6    20001004        0.961201    0.279026   -0.714684
     11          6    20001004       -0.152712    0.240989   -1.427781
     12          6    90000002       -1.229119   -0.817276   -1.393496
     13          6    90000002       -2.489302   -0.414068   -0.606775
     14          6    90000002       -3.756072   -0.421889   -1.472885
     15          6    90000002       -5.121054   -0.208571   -0.768637
     16          6    90000002       -6.208204   -0.198140   -1.855582
     17          7    20001014       -5.353734   -1.323329    0.139496
     18          6    20001002       -6.411736   -1.331846    1.001826
     19          6    20001001       -6.312966   -2.341755    2.122153
     20          8    20001024       -7.352557   -0.596665    0.885610
     21          6    20001002       -5.045518    1.089204    0.067305
     22          8    20001024       -4.568002    1.072875    1.169866
     23          7    20001014       -5.437310    2.236445   -0.527943
     24          6    20001001       -5.440063    3.479932    0.214978
     25          7    20001014        5.972024   -0.284257   -0.828684
     26          6    20001002        7.175642    0.198222   -0.406559
     27          6    20001001        8.232126    0.323058   -1.484694
     28          8    20001024        7.382868    0.513228    0.730968
     29          1    20001035        4.939472    2.892511    2.068385
     30          1    20001035        3.226366    2.515221    1.975682
     31          1    20001035        3.950201    3.580979    0.777467
     32          1    20001029        4.886791    1.750787   -0.311992
     33          1    20001034        4.690496   -2.343007    1.568002
     34          1    20001034        5.712093   -2.782579    0.199511
     35          1    20001034        6.309242   -1.704473    1.461161
     36          1    20001034        4.149530   -1.951839   -1.510281
     37          1    20001034        3.513997   -0.333653   -1.488261
     38          1    20001034        1.969877   -2.317984   -1.006157
     39          1    20001034        2.703347   -2.440226    0.561673
     40          1    20001034        1.843701   -0.196426    1.160960
     41          1    20001034        0.591373   -1.294466    0.691138
     42          1    20001033        1.617896    1.119972   -0.868550
     43          1    20001033       -0.326827    1.054949   -2.114013
     44          1    20001034       -0.841465   -1.734087   -0.966123
     45          1    20001034       -1.512065   -1.056314   -2.417896
     46          1    20001034       -2.589456   -1.099094    0.230532
     47          1    20001034       -2.341682    0.566327   -0.173344
     48          1    20001034       -3.825701   -1.369799   -2.002180
     49          1    20001034       -3.663541    0.349357   -2.228508
     50          1    20001034       -6.250851   -1.179725   -2.313024
     51          1    20001034       -5.974087    0.515379   -2.638820
     52          1    20001034       -7.181344    0.024308   -1.444179
     53          1    20001029       -4.534139   -1.769333    0.483093
     54          1    20001034       -7.301497   -2.539193    2.508008
     55          1    20001034       -5.706887   -1.918093    2.917328
     56          1    20001034       -5.852832   -3.268531    1.796965
     57          1    20001029       -6.033952    2.178647   -1.319137
     58          1    20001035       -5.666325    4.289206   -0.466785
     59          1    20001035       -4.465542    3.647383    0.649600
     60          1    20001035       -6.174639    3.470186    1.013764
     61          1    20001029        5.940193   -0.643496   -1.756845
     62          1    20001034        8.971203    1.044245   -1.167474
     63          1    20001034        7.812453    0.624765   -2.437794
     64          1    20001034        8.720620   -0.636908   -1.617509
 ---------------------------------------------------------------------

 SCF Done:  E(RHF) =  -1295.61675499     A.U. after   14 cycles

 The electronic state is 1-A.
 Alpha  occ. eigenvalues --  -20.53584 -20.52046 -20.51743 -20.51643 -15.59542
 Alpha  occ. eigenvalues --  -15.58005 -15.57538 -15.57409 -11.35905 -11.34251
 Alpha  occ. eigenvalues --  -11.33758 -11.33734 -11.28955 -11.28592 -11.25121
 Alpha  occ. eigenvalues --  -11.24726 -11.24305 -11.23936 -11.23589 -11.22632
 Alpha  occ. eigenvalues --  -11.22472 -11.22394 -11.22171 -11.22111 -11.21859
 Alpha  occ. eigenvalues --  -11.21786 -11.21502 -11.20806  -1.40518  -1.39391
 Alpha  occ. eigenvalues --   -1.38602  -1.38118  -1.25360  -1.23568  -1.22711
 Alpha  occ. eigenvalues --   -1.21960  -1.10617  -1.09220  -1.07212  -1.04182
 Alpha  occ. eigenvalues --   -1.01238  -0.99313  -0.98716  -0.95384  -0.95195
 Alpha  occ. eigenvalues --   -0.94646  -0.91975  -0.87185  -0.85609  -0.82581
 Alpha  occ. eigenvalues --   -0.81435  -0.79517  -0.78850  -0.77067  -0.76938
 Alpha  occ. eigenvalues --   -0.72043  -0.71340  -0.71085  -0.68880  -0.68154
 Alpha  occ. eigenvalues --   -0.66299  -0.65763  -0.64550  -0.64139  -0.63705
 Alpha  occ. eigenvalues --   -0.62587  -0.62261  -0.61653  -0.61377  -0.61194
 Alpha  occ. eigenvalues --   -0.60809  -0.59799  -0.59282  -0.58708  -0.58428
 Alpha  occ. eigenvalues --   -0.58188  -0.57666  -0.56771  -0.56259  -0.56037
 Alpha  occ. eigenvalues --   -0.55379  -0.54978  -0.54770  -0.54381  -0.54109
 Alpha  occ. eigenvalues --   -0.52851  -0.52734  -0.52577  -0.52030  -0.51629
 Alpha  occ. eigenvalues --   -0.50967  -0.49969  -0.49812  -0.49330  -0.48788
 Alpha  occ. eigenvalues --   -0.48070  -0.46898  -0.46196  -0.44543  -0.42798
 Alpha  occ. eigenvalues --   -0.41863  -0.41521  -0.41065  -0.39202  -0.38893
 Alpha  occ. eigenvalues --   -0.38342  -0.38194  -0.34302
 Alpha virt. eigenvalues --    0.17685   0.18867   0.19607   0.20066   0.20347
 Alpha virt. eigenvalues --    0.21559   0.21841   0.22873   0.23415   0.24144
 Alpha virt. eigenvalues --    0.25524   0.25726   0.26412   0.26999   0.27586

 Mulliken atomic charges:
              1
     1  C   -0.280069
     2  N   -0.783173
     3  C    0.821888
     4  O   -0.628275
     5  C    0.102428
     6  C   -0.472670
     7  C   -0.334062
     8  C   -0.311642
     9  C   -0.370480
    10  C   -0.180058
    11  C   -0.171536
    12  C   -0.358828
    13  C   -0.318144
    14  C   -0.329695
    15  C    0.090380
    16  C   -0.509402
    17  N   -0.787179
    18  C    0.767162
    19  C   -0.595754
    20  O   -0.614104
    21  C    0.819566
    22  O   -0.637474
    23  N   -0.807134
    24  C   -0.275477
    25  N   -0.842955
    26  C    0.744624
    27  C   -0.588676
    28  O   -0.591655
    29  H    0.186487
    30  H    0.199717
    31  H    0.162720
    32  H    0.391117
    33  H    0.198526
    34  H    0.143678
    35  H    0.212516
    36  H    0.160767
    37  H    0.182713
    38  H    0.163389
    39  H    0.178409
    40  H    0.214445
    41  H    0.169852
    42  H    0.180549
    43  H    0.170053
    44  H    0.173821
    45  H    0.165670
    46  H    0.156105
    47  H    0.207694
    48  H    0.177005
    49  H    0.176932
    50  H    0.184104
    51  H    0.147631
    52  H    0.226960
    53  H    0.389818
    54  H    0.211186
    55  H    0.210406
    56  H    0.176473
    57  H    0.395383
    58  H    0.164150
    59  H    0.198755
    60  H    0.185987
    61  H    0.382454
    62  H    0.218630
    63  H    0.177203
    64  H    0.201086
 Sum of Mulliken atomic charges =   0.00000

 Dipole moment (field-independent basis, Debye):
    X=              2.0871    Y=             -0.7719    Z=             -8.3607  Tot=              8.6518
 Quadrupole moment (field-independent basis, Debye-Ang):
   XX=           -189.7557   YY=           -152.8898   ZZ=           -175.8498
   XY=             -2.9212   XZ=            -20.1662   YZ=             -6.7633

 Normal termination of Gaussian 09 at Thu Dec  5 18:53:29 2019.
