 Gaussian 09, Revision A.02,
 Gaussian 09:  EM64L-G09RevA.02 11-Jun-2009

 ---------------------------------
 #SP HF/6-31G* Geom=(ModRedundant)
 ---------------------------------

 ------------
 paramfit run
 ------------
 Symbolic Z-matrix:
 Charge =  0 Multiplicity = 1

                         Standard orientation:
 ---------------------------------------------------------------------
 Center     Atomic      Atomic             Coordinates (Angstroms)
 Number     Number       Type             X           Y           Z
 ---------------------------------------------------------------------
      1          6    20001001       -3.360407    2.892510   -0.724825
      2          7    20001014       -3.807882    1.647598   -0.135584
      3          6    20001002       -3.893604    0.532382   -0.897852
      4          8    20001024       -3.406194    0.459425   -1.991860
      5          6    90000001       -4.534921   -0.700543   -0.236040
      6          6    90000002       -4.978573   -1.690995   -1.317715
      7          6    90000002       -3.536084   -1.353882    0.757476
      8          6    90000002       -2.193247   -1.885896    0.225135
      9          6    90000002       -1.045937   -0.873140    0.039014
     10          6    20001004       -0.687096   -0.113170    1.294385
     11          6    20001004        0.302296   -0.367051    2.135460
     12          6    90000002        1.317828   -1.481036    2.048965
     13          6    90000002        2.701262   -1.039095    1.538704
     14          6    90000002        2.647436   -0.434883    0.129114
     15          6    90000002        3.938368    0.212857   -0.435311
     16          6    90000002        3.635926    0.679261   -1.868645
     17          7    20001014        4.277531    1.365241    0.388405
     18          6    20001002        5.447501    2.046462    0.214729
     19          6    20001001        5.833014    2.953874    1.360499
     20          8    20001024        6.123882    1.938590   -0.770164
     21          6    20001002        5.089627   -0.812957   -0.330262
     22          8    20001024        5.696811   -0.939106    0.698982
     23          7    20001014        5.306483   -1.616013   -1.394242
     24          6    20001001        6.401461   -2.564203   -1.381584
     25          7    20001014       -5.678702   -0.299198    0.595897
     26          6    20001002       -6.778904    0.343896    0.110453
     27          6    20001001       -7.979454    0.350368    1.033903
     28          8    20001024       -6.795094    0.876942   -0.962738
     29          1    20001035       -4.062394    3.265032   -1.461976
     30          1    20001035       -2.404004    2.746019   -1.204989
     31          1    20001035       -3.247954    3.626966    0.062755
     32          1    20001029       -4.428412    1.706081    0.637597
     33          1    20001034       -4.151178   -1.976903   -1.949068
     34          1    20001034       -5.389271   -2.579449   -0.847381
     35          1    20001034       -5.733834   -1.245688   -1.948752
     36          1    20001034       -4.065515   -2.199057    1.191759
     37          1    20001034       -3.354889   -0.658191    1.570780
     38          1    20001034       -1.855346   -2.633869    0.936455
     39          1    20001034       -2.347237   -2.409911   -0.712453
     40          1    20001034       -1.296780   -0.167497   -0.742336
     41          1    20001034       -0.186137   -1.426368   -0.322258
     42          1    20001033       -1.317205    0.733525    1.513888
     43          1    20001033        0.410113    0.291553    2.983032
     44          1    20001034        0.954808   -2.271358    1.403152
     45          1    20001034        1.429702   -1.924759    3.037493
     46          1    20001034        3.103041   -0.323579    2.250732
     47          1    20001034        3.375249   -1.885451    1.554602
     48          1    20001034        1.875868    0.331262    0.093926
     49          1    20001034        2.348310   -1.208748   -0.568027
     50          1    20001034        2.892187    1.466506   -1.827641
     51          1    20001034        3.222728   -0.127243   -2.465469
     52          1    20001034        4.516405    1.072673   -2.354158
     53          1    20001029        3.956065    1.324627    1.328471
     54          1    20001034        6.524406    3.701247    1.002072
     55          1    20001034        6.327687    2.358415    2.121980
     56          1    20001034        4.970269    3.435074    1.808270
     57          1    20001029        4.964479   -1.328818   -2.280731
     58          1    20001035        6.329388   -3.187001   -2.263541
     59          1    20001035        6.333279   -3.188514   -0.502827
     60          1    20001035        7.365552   -2.065977   -1.374232
     61          1    20001029       -5.806032   -0.823710    1.432690
     62          1    20001034       -8.625231    1.172327    0.761272
     63          1    20001034       -7.695073    0.439103    2.076401
     64          1    20001034       -8.529257   -0.577054    0.909777
 ---------------------------------------------------------------------

 SCF Done:  E(RHF) =  -1295.62198761     A.U. after   14 cycles

 The electronic state is 1-A.
 Alpha  occ. eigenvalues --  -20.53774 -20.52049 -20.51832 -20.51481 -15.59747
 Alpha  occ. eigenvalues --  -15.57811 -15.57710 -15.57263 -11.36090 -11.34053
 Alpha  occ. eigenvalues --  -11.34044 -11.33524 -11.29200 -11.28256 -11.25056
 Alpha  occ. eigenvalues --  -11.25010 -11.24453 -11.24191 -11.22944 -11.22882
 Alpha  occ. eigenvalues --  -11.22587 -11.22462 -11.22366 -11.22320 -11.22247
 Alpha  occ. eigenvalues --  -11.21931 -11.21398 -11.21029  -1.40716  -1.39199
 Alpha  occ. eigenvalues --   -1.38903  -1.37936  -1.25580  -1.23288  -1.22526
 Alpha  occ. eigenvalues --   -1.22253  -1.10980  -1.09256  -1.07115  -1.04264
 Alpha  occ. eigenvalues --   -1.01257  -0.99407  -0.98598  -0.95685  -0.95295
 Alpha  occ. eigenvalues --   -0.94531  -0.92199  -0.87344  -0.85599  -0.82669
 Alpha  occ. eigenvalues --   -0.81398  -0.79281  -0.79033  -0.77356  -0.76713
 Alpha  occ. eigenvalues --   -0.71990  -0.71345  -0.71241  -0.69091  -0.67955
 Alpha  occ. eigenvalues --   -0.66402  -0.65997  -0.64415  -0.64335  -0.63783
 Alpha  occ. eigenvalues --   -0.62791  -0.62512  -0.61679  -0.61312  -0.61006
 Alpha  occ. eigenvalues --   -0.60945  -0.60054  -0.59297  -0.58735  -0.58573
 Alpha  occ. eigenvalues --   -0.58301  -0.57438  -0.56882  -0.56617  -0.55768
 Alpha  occ. eigenvalues --   -0.55477  -0.54971  -0.54695  -0.54656  -0.53851
 Alpha  occ. eigenvalues --   -0.53126  -0.52958  -0.52690  -0.52031  -0.51573
 Alpha  occ. eigenvalues --   -0.51208  -0.50039  -0.49697  -0.49288  -0.48720
 Alpha  occ. eigenvalues --   -0.47913  -0.47129  -0.46357  -0.44924  -0.43013
 Alpha  occ. eigenvalues --   -0.42109  -0.41292  -0.40855  -0.39453  -0.38691
 Alpha  occ. eigenvalues --   -0.38502  -0.38124  -0.34771
 Alpha virt. eigenvalues --    0.17291   0.18680   0.19801   0.19931   0.20096
 Alpha virt. eigenvalues --    0.21823   0.22061   0.23041   0.23153   0.23819
 Alpha virt. eigenvalues --    0.25162   0.25676   0.26545   0.26819   0.27677

 Mulliken atomic charges:
              1
     1  C   -0.279695
     2  N   -0.783506
     3  C    0.821936
     4  O   -0.629206
     5  C    0.102389
     6  C   -0.472685
     7  C   -0.334833
     8  C   -0.311764
     9  C   -0.371414
    10  C   -0.181726
    11  C   -0.177695
    12  C   -0.353448
    13  C   -0.314891
    14  C   -0.330796
    15  C    0.091288
    16  C   -0.509744
    17  N   -0.786422
    18  C    0.767495
    19  C   -0.595589
    20  O   -0.614324
    21  C    0.819197
    22  O   -0.641446
    23  N   -0.806883
    24  C   -0.274811
    25  N   -0.843112
    26  C    0.744474
    27  C   -0.588748
    28  O   -0.591759
    29  H    0.187583
    30  H    0.197094
    31  H    0.163272
    32  H    0.391823
    33  H    0.197857
    34  H    0.144618
    35  H    0.212906
    36  H    0.162287
    37  H    0.182814
    38  H    0.166239
    39  H    0.178923
    40  H    0.212331
    41  H    0.170499
    42  H    0.182190
    43  H    0.170693
    44  H    0.168663
    45  H    0.174037
    46  H    0.147955
    47  H    0.194735
    48  H    0.197188
    49  H    0.173422
    50  H    0.187252
    51  H    0.149603
    52  H    0.225036
    53  H    0.389515
    54  H    0.210780
    55  H    0.208049
    56  H    0.176459
    57  H    0.396609
    58  H    0.164845
    59  H    0.196124
    60  H    0.185394
    61  H    0.382946
    62  H    0.218933
    63  H    0.177513
    64  H    0.201532
 Sum of Mulliken atomic charges =   0.00000

 Dipole moment (field-independent basis, Debye):
    X=             -4.6375    Y=             -1.9374    Z=              5.2329  Tot=              7.2555
 Quadrupole moment (field-independent basis, Debye-Ang):
   XX=           -188.8299   YY=           -161.5714   ZZ=           -172.4526
   XY=              1.7511   XZ=            -31.9864   YZ=             13.6465

 Normal termination of Gaussian 09 at Thu Dec  5 18:20:22 2019.
