 Gaussian 09, Revision A.02,
 Gaussian 09:  EM64L-G09RevA.02 11-Jun-2009

 ---------------------------------
 #SP HF/6-31G* Geom=(ModRedundant)
 ---------------------------------

 ------------
 paramfit run
 ------------
 Symbolic Z-matrix:
 Charge =  0 Multiplicity = 1

                         Standard orientation:
 ---------------------------------------------------------------------
 Center     Atomic      Atomic             Coordinates (Angstroms)
 Number     Number       Type             X           Y           Z
 ---------------------------------------------------------------------
      1          6    20001001       -3.843129    2.937226    0.301827
      2          7    20001014       -4.173563    1.532894    0.427958
      3          6    20001002       -4.363654    0.781843   -0.681951
      4          8    20001024       -4.055448    1.160547   -1.778007
      5          6    90000001       -4.874072   -0.652899   -0.457505
      6          6    90000002       -5.470059   -1.195240   -1.760773
      7          6    90000002       -3.720813   -1.555649    0.058865
      8          6    90000002       -2.472345   -1.748785   -0.820716
      9          6    90000002       -1.383662   -0.658617   -0.766478
     10          6    20001004       -0.840517   -0.400643    0.619422
     11          6    20001004        0.273529   -0.877786    1.150453
     12          6    90000002        1.278020   -1.800009    0.502182
     13          6    90000002        2.556314   -1.098399    0.008952
     14          6    90000002        3.447684   -0.613521    1.160153
     15          6    90000002        4.848503   -0.049016    0.808460
     16          6    90000002        5.503543    0.418291    2.118421
     17          7    20001014        5.645474   -1.117815    0.221913
     18          6    20001002        6.876012   -0.876351   -0.317093
     19          6    20001001        7.407041   -1.973677   -1.210786
     20          8    20001024        7.495418    0.128273   -0.102125
     21          6    20001002        4.678367    1.064572   -0.249699
     22          8    20001024        4.585291    0.784521   -1.414533
     23          7    20001014        4.537335    2.331224    0.197161
     24          6    20001001        4.425008    3.428104   -0.742221
     25          7    20001014       -5.876545   -0.678200    0.617594
     26          6    20001002       -7.048924    0.017101    0.575689
     27          6    20001001       -8.087304   -0.411599    1.591613
     28          8    20001024       -7.243111    0.910925   -0.198591
     29          1    20001035       -4.658607    3.506200   -0.129698
     30          1    20001035       -2.973287    3.052333   -0.328132
     31          1    20001035       -3.617245    3.328892    1.285661
     32          1    20001029       -4.663998    1.251316    1.244335
     33          1    20001034       -4.749644   -1.161776   -2.563776
     34          1    20001034       -5.788136   -2.222872   -1.612325
     35          1    20001034       -6.322281   -0.602719   -2.060043
     36          1    20001034       -4.162444   -2.538512    0.207735
     37          1    20001034       -3.422430   -1.204390    1.041649
     38          1    20001034       -2.015085   -2.681839   -0.504580
     39          1    20001034       -2.766063   -1.892790   -1.855301
     40          1    20001034       -1.765520    0.267990   -1.175069
     41          1    20001034       -0.584529   -0.971073   -1.429495
     42          1    20001033       -1.439599    0.253082    1.232494
     43          1    20001033        0.505449   -0.579053    2.160766
     44          1    20001034        0.828119   -2.314912   -0.338015
     45          1    20001034        1.551938   -2.572496    1.219696
     46          1    20001034        3.092532   -1.797305   -0.626953
     47          1    20001034        2.284613   -0.265834   -0.626536
     48          1    20001034        3.610016   -1.430572    1.859873
     49          1    20001034        2.919688    0.160735    1.704302
     50          1    20001034        5.672558   -0.446422    2.749520
     51          1    20001034        4.853958    1.095815    2.662828
     52          1    20001034        6.455098    0.896295    1.940106
     53          1    20001029        5.126559   -1.834467   -0.231792
     54          1    20001034        8.480386   -1.883818   -1.280909
     55          1    20001034        6.981567   -1.848791   -2.201997
     56          1    20001034        7.143277   -2.960558   -0.846261
     57          1    20001029        4.854714    2.547674    1.112438
     58          1    20001035        4.199675    4.332325   -0.192193
     59          1    20001035        3.623906    3.230823   -1.439315
     60          1    20001035        5.341688    3.571748   -1.305087
     61          1    20001029       -5.861752   -1.486061    1.199565
     62          1    20001034       -8.779769    0.402654    1.747998
     63          1    20001034       -7.642033   -0.699575    2.537316
     64          1    20001034       -8.636690   -1.262573    1.201972
 ---------------------------------------------------------------------

 SCF Done:  E(RHF) =  -1295.62173084     A.U. after   14 cycles

 The electronic state is 1-A.
 Alpha  occ. eigenvalues --  -20.53636 -20.52047 -20.51826 -20.51586 -15.59594
 Alpha  occ. eigenvalues --  -15.57903 -15.57526 -15.57514 -11.35956 -11.34255
 Alpha  occ. eigenvalues --  -11.33839 -11.33676 -11.29009 -11.28576 -11.24981
 Alpha  occ. eigenvalues --  -11.24874 -11.24350 -11.23984 -11.23438 -11.22673
 Alpha  occ. eigenvalues --  -11.22528 -11.22510 -11.22319 -11.22194 -11.21981
 Alpha  occ. eigenvalues --  -11.21816 -11.21556 -11.20837  -1.40573  -1.39364
 Alpha  occ. eigenvalues --   -1.38684  -1.38087  -1.25417  -1.23552  -1.22614
 Alpha  occ. eigenvalues --   -1.22061  -1.10724  -1.09247  -1.07193  -1.04210
 Alpha  occ. eigenvalues --   -1.01232  -0.99319  -0.98733  -0.95498  -0.95133
 Alpha  occ. eigenvalues --   -0.94582  -0.92143  -0.87243  -0.85682  -0.82787
 Alpha  occ. eigenvalues --   -0.81352  -0.79491  -0.78777  -0.77161  -0.76877
 Alpha  occ. eigenvalues --   -0.71934  -0.71286  -0.71096  -0.68928  -0.68038
 Alpha  occ. eigenvalues --   -0.66611  -0.65829  -0.64522  -0.63955  -0.63730
 Alpha  occ. eigenvalues --   -0.62571  -0.62288  -0.61782  -0.61418  -0.61142
 Alpha  occ. eigenvalues --   -0.60916  -0.59887  -0.59313  -0.58703  -0.58417
 Alpha  occ. eigenvalues --   -0.58246  -0.57796  -0.56581  -0.56373  -0.56188
 Alpha  occ. eigenvalues --   -0.55450  -0.54829  -0.54739  -0.54534  -0.54039
 Alpha  occ. eigenvalues --   -0.53052  -0.52801  -0.52475  -0.52120  -0.51549
 Alpha  occ. eigenvalues --   -0.51013  -0.50246  -0.49782  -0.49275  -0.48638
 Alpha  occ. eigenvalues --   -0.48326  -0.46910  -0.46344  -0.44500  -0.42852
 Alpha  occ. eigenvalues --   -0.41924  -0.41501  -0.41064  -0.39269  -0.38838
 Alpha  occ. eigenvalues --   -0.38297  -0.38280  -0.34472
 Alpha virt. eigenvalues --    0.17324   0.18812   0.19659   0.20005   0.20249
 Alpha virt. eigenvalues --    0.21585   0.22044   0.23152   0.23308   0.24000
 Alpha virt. eigenvalues --    0.25297   0.25670   0.26543   0.26985   0.27704

 Mulliken atomic charges:
              1
     1  C   -0.279715
     2  N   -0.783384
     3  C    0.821877
     4  O   -0.628045
     5  C    0.102343
     6  C   -0.472784
     7  C   -0.334232
     8  C   -0.311917
     9  C   -0.373686
    10  C   -0.178139
    11  C   -0.175021
    12  C   -0.356050
    13  C   -0.312663
    14  C   -0.327286
    15  C    0.090710
    16  C   -0.509556
    17  N   -0.787572
    18  C    0.767279
    19  C   -0.595727
    20  O   -0.613849
    21  C    0.820508
    22  O   -0.638979
    23  N   -0.806136
    24  C   -0.275641
    25  N   -0.843059
    26  C    0.744571
    27  C   -0.588672
    28  O   -0.591736
    29  H    0.186929
    30  H    0.198584
    31  H    0.162180
    32  H    0.391258
    33  H    0.198978
    34  H    0.144002
    35  H    0.212505
    36  H    0.161235
    37  H    0.182132
    38  H    0.164205
    39  H    0.179720
    40  H    0.213724
    41  H    0.175024
    42  H    0.180436
    43  H    0.168749
    44  H    0.176913
    45  H    0.160345
    46  H    0.151442
    47  H    0.201513
    48  H    0.173852
    49  H    0.182703
    50  H    0.183615
    51  H    0.148166
    52  H    0.226720
    53  H    0.389914
    54  H    0.211191
    55  H    0.209635
    56  H    0.176286
    57  H    0.395221
    58  H    0.164611
    59  H    0.199976
    60  H    0.185129
    61  H    0.382572
    62  H    0.218605
    63  H    0.177161
    64  H    0.201329
 Sum of Mulliken atomic charges =   0.00000

 Dipole moment (field-independent basis, Debye):
    X=             -2.6305    Y=             -4.0874    Z=              6.8459  Tot=              8.3960
 Quadrupole moment (field-independent basis, Debye-Ang):
   XX=           -194.2840   YY=           -154.7783   ZZ=           -173.8706
   XY=             12.7786   XZ=            -19.1793   YZ=             10.5195

 Normal termination of Gaussian 09 at Thu Dec  5 18:27:01 2019.
