 Gaussian 09, Revision A.02,
 Gaussian 09:  EM64L-G09RevA.02 11-Jun-2009

 ---------------------------------
 #SP HF/6-31G* Geom=(ModRedundant)
 ---------------------------------

 ------------
 paramfit run
 ------------
 Symbolic Z-matrix:
 Charge =  0 Multiplicity = 1

                         Standard orientation:
 ---------------------------------------------------------------------
 Center     Atomic      Atomic             Coordinates (Angstroms)
 Number     Number       Type             X           Y           Z
 ---------------------------------------------------------------------
      1          6    20001001       -3.421217    2.955744   -0.394310
      2          7    20001014       -3.849151    1.645182    0.049024
      3          6    20001002       -3.908086    0.620159   -0.832999
      4          8    20001024       -3.411461    0.678012   -1.923761
      5          6    90000001       -4.530575   -0.690066   -0.318022
      6          6    90000002       -4.947428   -1.562130   -1.506963
      7          6    90000002       -3.526696   -1.431494    0.606161
      8          6    90000002       -2.170146   -1.876657    0.030628
      9          6    90000002       -1.041020   -0.828862   -0.031320
     10          6    20001004       -0.705827   -0.206646    1.303884
     11          6    20001004        0.282102   -0.534393    2.120790
     12          6    90000002        1.319273   -1.613284    1.920736
     13          6    90000002        2.697696   -1.092395    1.475549
     14          6    90000002        2.691918   -0.555125    0.038114
     15          6    90000002        3.967092    0.161613   -0.476539
     16          6    90000002        3.725200    0.542130   -1.946282
     17          7    20001014        4.169451    1.370383    0.310517
     18          6    20001002        5.296648    2.128346    0.176443
     19          6    20001001        5.541843    3.110356    1.299093
     20          8    20001024        6.041075    2.028583   -0.758981
     21          6    20001002        5.179365   -0.770551   -0.252513
     22          8    20001024        5.726384   -0.806883    0.816778
     23          7    20001014        5.521041   -1.600411   -1.261754
     24          6    20001001        6.677717   -2.463391   -1.136982
     25          7    20001014       -5.687792   -0.404409    0.542607
     26          6    20001002       -6.796501    0.268571    0.121259
     27          6    20001001       -8.003614    0.150671    1.028505
     28          8    20001024       -6.815067    0.917135   -0.886293
     29          1    20001035       -4.124815    3.395046   -1.092102
     30          1    20001035       -2.458743    2.880854   -0.878829
     31          1    20001035       -3.328486    3.600097    0.470885
     32          1    20001029       -4.476268    1.606167    0.818106
     33          1    20001034       -4.110184   -1.761098   -2.158397
     34          1    20001034       -5.344523   -2.504625   -1.141919
     35          1    20001034       -5.706445   -1.063256   -2.091723
     36          1    20001034       -4.043061   -2.329134    0.939072
     37          1    20001034       -3.364685   -0.827269    1.493260
     38          1    20001034       -1.823218   -2.692757    0.657716
     39          1    20001034       -2.307328   -2.295999   -0.960688
     40          1    20001034       -1.299594   -0.045466   -0.731887
     41          1    20001034       -0.168242   -1.322862   -0.443699
     42          1    20001033       -1.353527    0.598867    1.610064
     43          1    20001033        0.371208    0.027843    3.037148
     44          1    20001034        0.976065   -2.333437    1.187897
     45          1    20001034        1.432416   -2.161954    2.854949
     46          1    20001034        3.000720   -0.319054    2.175902
     47          1    20001034        3.427864   -1.884986    1.572953
     48          1    20001034        1.871583    0.149484   -0.080668
     49          1    20001034        2.494273   -1.378349   -0.638339
     50          1    20001034        2.926151    1.273107   -1.988404
     51          1    20001034        3.409871   -0.317747   -2.528141
     52          1    20001034        4.604861    0.978448   -2.395240
     53          1    20001029        3.791769    1.346587    1.230029
     54          1    20001034        6.199871    3.890791    0.948404
     55          1    20001034        6.027582    2.586568    2.116912
     56          1    20001034        4.619930    3.545118    1.669822
     57          1    20001029        5.217294   -1.377818   -2.180177
     58          1    20001035        6.707220   -3.127234   -1.991009
     59          1    20001035        6.597702   -3.052599   -0.235285
     60          1    20001035        7.601361   -1.895211   -1.094440
     61          1    20001029       -5.811165   -1.020837    1.314839
     62          1    20001034       -8.662942    0.985982    0.842720
     63          1    20001034       -7.728536    0.128210    2.077017
     64          1    20001034       -8.534735   -0.767041    0.797165
 ---------------------------------------------------------------------

 SCF Done:  E(RHF) =  -1295.62243722     A.U. after   14 cycles

 The electronic state is 1-A.
 Alpha  occ. eigenvalues --  -20.53767 -20.52037 -20.51835 -20.51515 -15.59739
 Alpha  occ. eigenvalues --  -15.57847 -15.57699 -15.57269 -11.36083 -11.34046
 Alpha  occ. eigenvalues --  -11.34042 -11.33562 -11.29192 -11.28303 -11.25045
 Alpha  occ. eigenvalues --  -11.25041 -11.24447 -11.24182 -11.23019 -11.22934
 Alpha  occ. eigenvalues --  -11.22574 -11.22453 -11.22355 -11.22321 -11.22237
 Alpha  occ. eigenvalues --  -11.21916 -11.21437 -11.21021  -1.40708  -1.39218
 Alpha  occ. eigenvalues --   -1.38891  -1.37954  -1.25572  -1.23304  -1.22559
 Alpha  occ. eigenvalues --   -1.22242  -1.10953  -1.09255  -1.07149  -1.04265
 Alpha  occ. eigenvalues --   -1.01271  -0.99416  -0.98598  -0.95675  -0.95320
 Alpha  occ. eigenvalues --   -0.94560  -0.92162  -0.87338  -0.85596  -0.82641
 Alpha  occ. eigenvalues --   -0.81455  -0.79306  -0.79049  -0.77345  -0.76737
 Alpha  occ. eigenvalues --   -0.72038  -0.71340  -0.71261  -0.69088  -0.67947
 Alpha  occ. eigenvalues --   -0.66408  -0.65987  -0.64422  -0.64276  -0.63828
 Alpha  occ. eigenvalues --   -0.62767  -0.62491  -0.61717  -0.61312  -0.61031
 Alpha  occ. eigenvalues --   -0.60955  -0.60058  -0.59289  -0.58749  -0.58552
 Alpha  occ. eigenvalues --   -0.58298  -0.57448  -0.56878  -0.56660  -0.55764
 Alpha  occ. eigenvalues --   -0.55404  -0.54958  -0.54722  -0.54662  -0.53937
 Alpha  occ. eigenvalues --   -0.53155  -0.52946  -0.52677  -0.51981  -0.51595
 Alpha  occ. eigenvalues --   -0.51198  -0.50005  -0.49708  -0.49247  -0.48623
 Alpha  occ. eigenvalues --   -0.48108  -0.47137  -0.46370  -0.44971  -0.43005
 Alpha  occ. eigenvalues --   -0.42099  -0.41321  -0.40859  -0.39443  -0.38713
 Alpha  occ. eigenvalues --   -0.38490  -0.38152  -0.34777
 Alpha virt. eigenvalues --    0.17368   0.18688   0.19787   0.19912   0.20108
 Alpha virt. eigenvalues --    0.21769   0.22064   0.23062   0.23166   0.23931
 Alpha virt. eigenvalues --    0.25195   0.25660   0.26540   0.26849   0.27600

 Mulliken atomic charges:
              1
     1  C   -0.279719
     2  N   -0.783487
     3  C    0.821939
     4  O   -0.629148
     5  C    0.102392
     6  C   -0.472685
     7  C   -0.334808
     8  C   -0.311729
     9  C   -0.372480
    10  C   -0.182605
    11  C   -0.176764
    12  C   -0.354204
    13  C   -0.313833
    14  C   -0.331032
    15  C    0.091141
    16  C   -0.510091
    17  N   -0.786075
    18  C    0.767513
    19  C   -0.595677
    20  O   -0.614451
    21  C    0.819188
    22  O   -0.641110
    23  N   -0.806947
    24  C   -0.274840
    25  N   -0.843105
    26  C    0.744474
    27  C   -0.588748
    28  O   -0.591754
    29  H    0.187559
    30  H    0.197237
    31  H    0.163181
    32  H    0.391804
    33  H    0.197868
    34  H    0.144559
    35  H    0.212908
    36  H    0.162208
    37  H    0.182869
    38  H    0.166055
    39  H    0.178830
    40  H    0.212450
    41  H    0.170730
    42  H    0.182096
    43  H    0.171480
    44  H    0.167787
    45  H    0.174364
    46  H    0.149455
    47  H    0.194036
    48  H    0.195999
    49  H    0.173081
    50  H    0.188280
    51  H    0.148725
    52  H    0.225374
    53  H    0.390112
    54  H    0.210808
    55  H    0.207933
    56  H    0.176931
    57  H    0.396513
    58  H    0.164752
    59  H    0.196240
    60  H    0.185530
    61  H    0.382937
    62  H    0.218923
    63  H    0.177519
    64  H    0.201508
 Sum of Mulliken atomic charges =   0.00000

 Dipole moment (field-independent basis, Debye):
    X=             -4.5346    Y=             -2.8074    Z=              4.8894  Tot=              7.2354
 Quadrupole moment (field-independent basis, Debye-Ang):
   XX=           -187.1520   YY=           -161.8127   ZZ=           -172.8683
   XY=              2.7479   XZ=            -32.7394   YZ=             14.6055

 Normal termination of Gaussian 09 at Thu Dec  5 19:16:15 2019.
