 Gaussian 09, Revision A.02,
 Gaussian 09:  EM64L-G09RevA.02 11-Jun-2009

 ---------------------------------
 #SP HF/6-31G* Geom=(ModRedundant)
 ---------------------------------

 ------------
 paramfit run
 ------------
 Symbolic Z-matrix:
 Charge =  0 Multiplicity = 1

                         Standard orientation:
 ---------------------------------------------------------------------
 Center     Atomic      Atomic             Coordinates (Angstroms)
 Number     Number       Type             X           Y           Z
 ---------------------------------------------------------------------
      1          6    20001001        3.392461    2.137268   -2.023374
      2          7    20001014        3.838806    0.952374   -1.320487
      3          6    20001002        4.069124    1.004745    0.012299
      4          8    20001024        3.710844    1.925303    0.693441
      5          6    90000001        4.699118   -0.248086    0.647050
      6          6    90000002        5.313287    0.117085    2.002516
      7          6    90000002        3.633197   -1.368411    0.789488
      8          6    90000002        2.388675   -1.109336    1.657635
      9          6    90000002        1.215743   -0.342251    1.015414
     10          6    20001004        0.678989   -0.981658   -0.243686
     11          6    20001004       -0.382361   -1.762899   -0.361817
     12          6    90000002       -1.319926   -2.209882    0.734054
     13          6    90000002       -2.660151   -1.453481    0.768995
     14          6    90000002       -2.872240   -0.566774   -0.465381
     15          6    90000002       -4.254576    0.112529   -0.645208
     16          6    90000002       -4.183540    0.983097   -1.910323
     17          7    20001014       -5.261133   -0.924634   -0.825952
     18          6    20001002       -6.592723   -0.627219   -0.864275
     19          6    20001001       -7.515666   -1.809002   -0.673573
     20          8    20001024       -7.006806    0.485486   -1.036222
     21          6    20001002       -4.590369    0.893326    0.645653
     22          8    20001024       -5.078573    0.327340    1.586528
     23          7    20001014       -4.220612    2.191055    0.701873
     24          6    20001001       -4.549991    2.994017    1.861599
     25          7    20001014        5.719964   -0.816755   -0.245093
     26          6    20001002        6.830638   -0.138974   -0.653368
     27          6    20001001        7.919135   -0.997049   -1.264105
     28          8    20001024        6.936830    1.050187   -0.549637
     29          1    20001035        4.150625    2.911927   -2.029787
     30          1    20001035        2.504653    2.529881   -1.549693
     31          1    20001035        3.153515    1.864518   -3.043602
     32          1    20001029        4.365581    0.287240   -1.836617
     33          1    20001034        4.577859    0.555811    2.659478
     34          1    20001034        5.716950   -0.776756    2.468716
     35          1    20001034        6.108580    0.836693    1.873682
     36          1    20001034        4.156330   -2.216718    1.225294
     37          1    20001034        3.325289   -1.678858   -0.204039
     38          1    20001034        2.015090   -2.083992    1.957800
     39          1    20001034        2.674045   -0.601308    2.572974
     40          1    20001034        1.513012    0.675162    0.796630
     41          1    20001034        0.432720   -0.271118    1.762173
     42          1    20001033        1.233859   -0.762860   -1.141661
     43          1    20001033       -0.619241   -2.126763   -1.349365
     44          1    20001034       -0.845030   -2.103198    1.701813
     45          1    20001034       -1.516529   -3.273926    0.608557
     46          1    20001034       -3.453496   -2.190623    0.856165
     47          1    20001034       -2.709529   -0.855077    1.669165
     48          1    20001034       -2.695733   -1.152272   -1.365143
     49          1    20001034       -2.128626    0.221466   -0.457263
     50          1    20001034       -4.047189    0.336396   -2.769258
     51          1    20001034       -3.335713    1.659353   -1.874994
     52          1    20001034       -5.090992    1.549709   -2.055990
     53          1    20001029       -5.043464   -1.803761   -0.415501
     54          1    20001034       -8.486723   -1.567866   -1.078496
     55          1    20001034       -7.619357   -1.998738    0.390557
     56          1    20001034       -7.132335   -2.706812   -1.146205
     57          1    20001029       -4.050834    2.671525   -0.149968
     58          1    20001035       -4.065292    3.956579    1.764332
     59          1    20001035       -4.190542    2.507305    2.756324
     60          1    20001035       -5.620790    3.141695    1.958224
     61          1    20001029        5.781966   -1.810582   -0.248270
     62          1    20001034        8.545520   -0.375360   -1.887097
     63          1    20001034        7.516401   -1.814804   -1.851159
     64          1    20001034        8.528935   -1.416935   -0.470606
 ---------------------------------------------------------------------

 SCF Done:  E(RHF) =  -1295.61326720     A.U. after   14 cycles

 The electronic state is 1-A.
 Alpha  occ. eigenvalues --  -20.53736 -20.51996 -20.51929 -20.51462 -15.59698
 Alpha  occ. eigenvalues --  -15.57757 -15.57680 -15.57367 -11.36052 -11.34136
 Alpha  occ. eigenvalues --  -11.34002 -11.33525 -11.29131 -11.28279 -11.25073
 Alpha  occ. eigenvalues --  -11.24883 -11.24426 -11.24098 -11.23001 -11.22799
 Alpha  occ. eigenvalues --  -11.22455 -11.22452 -11.22352 -11.22212 -11.22044
 Alpha  occ. eigenvalues --  -11.21772 -11.21575 -11.20951  -1.40677  -1.39240
 Alpha  occ. eigenvalues --   -1.38851  -1.37968  -1.25530  -1.23381  -1.22473
 Alpha  occ. eigenvalues --   -1.22222  -1.10945  -1.09292  -1.07059  -1.04246
 Alpha  occ. eigenvalues --   -1.01184  -0.99309  -0.98667  -0.95669  -0.95081
 Alpha  occ. eigenvalues --   -0.94475  -0.92356  -0.87332  -0.85705  -0.82952
 Alpha  occ. eigenvalues --   -0.81269  -0.79350  -0.78738  -0.77318  -0.76730
 Alpha  occ. eigenvalues --   -0.71616  -0.71349  -0.71169  -0.69031  -0.67644
 Alpha  occ. eigenvalues --   -0.67180  -0.65982  -0.64551  -0.64043  -0.63470
 Alpha  occ. eigenvalues --   -0.62803  -0.62539  -0.61506  -0.61336  -0.61164
 Alpha  occ. eigenvalues --   -0.60805  -0.59855  -0.59467  -0.58737  -0.58515
 Alpha  occ. eigenvalues --   -0.58288  -0.57709  -0.56580  -0.56498  -0.56183
 Alpha  occ. eigenvalues --   -0.55646  -0.54976  -0.54706  -0.54654  -0.53623
 Alpha  occ. eigenvalues --   -0.53323  -0.52940  -0.52658  -0.52272  -0.51483
 Alpha  occ. eigenvalues --   -0.51139  -0.50519  -0.49671  -0.49255  -0.48619
 Alpha  occ. eigenvalues --   -0.47260  -0.46693  -0.46508  -0.44591  -0.42967
 Alpha  occ. eigenvalues --   -0.42053  -0.41321  -0.40928  -0.39404  -0.38712
 Alpha  occ. eigenvalues --   -0.38468  -0.38127  -0.34594
 Alpha virt. eigenvalues --    0.17495   0.18719   0.19773   0.19902   0.20149
 Alpha virt. eigenvalues --    0.21219   0.21937   0.23070   0.23255   0.23461
 Alpha virt. eigenvalues --    0.25035   0.25398   0.26395   0.27142   0.27612

 Mulliken atomic charges:
              1
     1  C   -0.279304
     2  N   -0.783349
     3  C    0.822049
     4  O   -0.628932
     5  C    0.102232
     6  C   -0.472755
     7  C   -0.334620
     8  C   -0.311389
     9  C   -0.371966
    10  C   -0.181528
    11  C   -0.184527
    12  C   -0.351596
    13  C   -0.318841
    14  C   -0.330573
    15  C    0.093315
    16  C   -0.509622
    17  N   -0.787670
    18  C    0.767592
    19  C   -0.595486
    20  O   -0.614168
    21  C    0.820055
    22  O   -0.641292
    23  N   -0.805766
    24  C   -0.275223
    25  N   -0.843118
    26  C    0.744507
    27  C   -0.588711
    28  O   -0.591915
    29  H    0.187440
    30  H    0.196274
    31  H    0.162860
    32  H    0.391757
    33  H    0.198560
    34  H    0.144574
    35  H    0.212566
    36  H    0.161942
    37  H    0.182470
    38  H    0.165727
    39  H    0.179564
    40  H    0.211458
    41  H    0.171879
    42  H    0.179933
    43  H    0.173530
    44  H    0.179075
    45  H    0.167845
    46  H    0.153574
    47  H    0.197608
    48  H    0.173961
    49  H    0.193063
    50  H    0.182395
    51  H    0.150261
    52  H    0.225574
    53  H    0.388501
    54  H    0.210859
    55  H    0.208859
    56  H    0.175694
    57  H    0.396129
    58  H    0.166443
    59  H    0.197177
    60  H    0.184513
    61  H    0.382865
    62  H    0.218738
    63  H    0.177370
    64  H    0.201560
 Sum of Mulliken atomic charges =   0.00000

 Dipole moment (field-independent basis, Debye):
    X=              3.8604    Y=             -6.0212    Z=             -3.0094  Tot=              7.7598
 Quadrupole moment (field-independent basis, Debye-Ang):
   XX=           -193.7762   YY=           -162.9326   ZZ=           -169.5272
   XY=            -21.5892   XZ=             -5.7072   YZ=             -0.6003

 Normal termination of Gaussian 09 at Thu Dec  5 19:00:16 2019.
