 Gaussian 09, Revision A.02,
 Gaussian 09:  EM64L-G09RevA.02 11-Jun-2009

 ---------------------------------
 #SP HF/6-31G* Geom=(ModRedundant)
 ---------------------------------

 ------------
 paramfit run
 ------------
 Symbolic Z-matrix:
 Charge =  0 Multiplicity = 1

                         Standard orientation:
 ---------------------------------------------------------------------
 Center     Atomic      Atomic             Coordinates (Angstroms)
 Number     Number       Type             X           Y           Z
 ---------------------------------------------------------------------
      1          6    20001001        4.077900    2.845532    1.018685
      2          7    20001014        4.350750    1.613792    0.307619
      3          6    20001002        4.473249    0.452329    0.991803
      4          8    20001024        4.147712    0.343186    2.141525
      5          6    90000001        4.927574   -0.774427    0.180603
      6          6    90000002        5.458420   -1.851239    1.132715
      7          6    90000002        3.752852   -1.308725   -0.683201
      8          6    90000002        2.470304   -1.792437    0.017319
      9          6    90000002        1.432269   -0.727561    0.423718
     10          6    20001004        0.944407    0.124917   -0.724127
     11          6    20001004       -0.172197   -0.020868   -1.418893
     12          6    90000002       -1.235589   -1.077169   -1.236744
     13          6    90000002       -2.496955   -0.586614   -0.503343
     14          6    90000002       -3.719948   -0.493718   -1.425608
     15          6    90000002       -5.096048   -0.184111   -0.781295
     16          6    90000002       -6.128667   -0.084855   -1.915887
     17          7    20001014       -5.452060   -1.284805    0.103724
     18          6    20001002       -6.546035   -1.220442    0.917439
     19          6    20001001       -6.573761   -2.242827    2.030438
     20          8    20001024       -7.423390   -0.416282    0.766714
     21          6    20001002       -4.962611    1.098445    0.070743
     22          8    20001024       -4.538456    1.038700    1.193441
     23          7    20001014       -5.240564    2.275921   -0.529484
     24          6    20001001       -5.184903    3.510845    0.225543
     25          7    20001014        5.961091   -0.391647   -0.792409
     26          6    20001002        7.160706    0.156622   -0.446005
     27          6    20001001        8.210695    0.148007   -1.537595
     28          8    20001024        7.369287    0.623385    0.637861
     29          1    20001035        4.903464    3.132388    1.659861
     30          1    20001035        3.194632    2.726665    1.628956
     31          1    20001035        3.900098    3.630595    0.294519
     32          1    20001029        4.853741    1.681795   -0.545997
     33          1    20001034        4.715411   -2.125480    1.865969
     34          1    20001034        5.736005   -2.732650    0.562364
     35          1    20001034        6.325831   -1.488663    1.664752
     36          1    20001034        4.155773   -2.156034   -1.233605
     37          1    20001034        3.500866   -0.556780   -1.424390
     38          1    20001034        1.983012   -2.476121   -0.671696
     39          1    20001034        2.725024   -2.379072    0.893875
     40          1    20001034        1.841098   -0.085150    1.192828
     41          1    20001034        0.599988   -1.250338    0.881810
     42          1    20001033        1.590199    0.945099   -0.993137
     43          1    20001033       -0.359240    0.691884   -2.206776
     44          1    20001034       -0.834961   -1.924066   -0.692934
     45          1    20001034       -1.520284   -1.454371   -2.218203
     46          1    20001034       -2.685810   -1.268174    0.321390
     47          1    20001034       -2.296897    0.376930   -0.053465
     48          1    20001034       -3.835525   -1.430008   -1.967399
     49          1    20001034       -3.536015    0.273810   -2.168185
     50          1    20001034       -6.223145   -1.057250   -2.385039
     51          1    20001034       -5.806713    0.614735   -2.680282
     52          1    20001034       -7.100370    0.206686   -1.546380
     53          1    20001029       -4.684382   -1.793165    0.479162
     54          1    20001034       -7.590804   -2.368659    2.369334
     55          1    20001034       -5.974835   -1.871235    2.856472
     56          1    20001034       -6.169340   -3.199032    1.716596
     57          1    20001029       -5.803109    2.268431   -1.347284
     58          1    20001035       -5.319099    4.339566   -0.457199
     59          1    20001035       -4.221499    3.602004    0.705302
     60          1    20001035       -5.953871    3.550291    0.990321
     61          1    20001029        5.929378   -0.872228   -1.663950
     62          1    20001034        8.942450    0.913506   -1.324243
     63          1    20001034        7.783083    0.314641   -2.519904
     64          1    20001034        8.710128   -0.815492   -1.543770
 ---------------------------------------------------------------------

 SCF Done:  E(RHF) =  -1295.61687828     A.U. after   14 cycles

 The electronic state is 1-A.
 Alpha  occ. eigenvalues --  -20.53585 -20.52053 -20.51743 -20.51634 -15.59542
 Alpha  occ. eigenvalues --  -15.57991 -15.57542 -15.57416 -11.35906 -11.34259
 Alpha  occ. eigenvalues --  -11.33759 -11.33726 -11.28953 -11.28591 -11.25098
 Alpha  occ. eigenvalues --  -11.24740 -11.24307 -11.23931 -11.23580 -11.22622
 Alpha  occ. eigenvalues --  -11.22488 -11.22396 -11.22172 -11.22114 -11.21858
 Alpha  occ. eigenvalues --  -11.21799 -11.21485 -11.20800  -1.40519  -1.39390
 Alpha  occ. eigenvalues --   -1.38603  -1.38116  -1.25360  -1.23571  -1.22697
 Alpha  occ. eigenvalues --   -1.21966  -1.10622  -1.09220  -1.07206  -1.04180
 Alpha  occ. eigenvalues --   -1.01233  -0.99310  -0.98723  -0.95393  -0.95180
 Alpha  occ. eigenvalues --   -0.94634  -0.91992  -0.87185  -0.85617  -0.82610
 Alpha  occ. eigenvalues --   -0.81418  -0.79515  -0.78831  -0.77072  -0.76932
 Alpha  occ. eigenvalues --   -0.72031  -0.71325  -0.71081  -0.68878  -0.68161
 Alpha  occ. eigenvalues --   -0.66313  -0.65759  -0.64538  -0.64094  -0.63724
 Alpha  occ. eigenvalues --   -0.62561  -0.62236  -0.61697  -0.61402  -0.61181
 Alpha  occ. eigenvalues --   -0.60830  -0.59817  -0.59273  -0.58703  -0.58429
 Alpha  occ. eigenvalues --   -0.58186  -0.57678  -0.56719  -0.56264  -0.56070
 Alpha  occ. eigenvalues --   -0.55359  -0.54909  -0.54776  -0.54404  -0.54170
 Alpha  occ. eigenvalues --   -0.52897  -0.52739  -0.52562  -0.52038  -0.51602
 Alpha  occ. eigenvalues --   -0.50964  -0.49995  -0.49829  -0.49330  -0.48777
 Alpha  occ. eigenvalues --   -0.48104  -0.46879  -0.46155  -0.44506  -0.42797
 Alpha  occ. eigenvalues --   -0.41862  -0.41519  -0.41072  -0.39202  -0.38886
 Alpha  occ. eigenvalues --   -0.38335  -0.38199  -0.34313
 Alpha virt. eigenvalues --    0.17625   0.18865   0.19607   0.20064   0.20335
 Alpha virt. eigenvalues --    0.21547   0.21942   0.22968   0.23404   0.24127
 Alpha virt. eigenvalues --    0.25496   0.25640   0.26457   0.27004   0.27532

 Mulliken atomic charges:
              1
     1  C   -0.280014
     2  N   -0.783213
     3  C    0.821884
     4  O   -0.628147
     5  C    0.102414
     6  C   -0.472694
     7  C   -0.334043
     8  C   -0.311699
     9  C   -0.370986
    10  C   -0.179706
    11  C   -0.171038
    12  C   -0.360414
    13  C   -0.318428
    14  C   -0.328598
    15  C    0.090349
    16  C   -0.509432
    17  N   -0.787215
    18  C    0.767206
    19  C   -0.595767
    20  O   -0.614024
    21  C    0.819673
    22  O   -0.637700
    23  N   -0.806996
    24  C   -0.275549
    25  N   -0.842971
    26  C    0.744619
    27  C   -0.588670
    28  O   -0.591663
    29  H    0.186546
    30  H    0.199621
    31  H    0.162538
    32  H    0.391101
    33  H    0.198666
    34  H    0.143688
    35  H    0.212492
    36  H    0.160772
    37  H    0.182559
    38  H    0.163384
    39  H    0.178629
    40  H    0.214370
    41  H    0.171063
    42  H    0.180340
    43  H    0.169155
    44  H    0.175224
    45  H    0.164983
    46  H    0.155291
    47  H    0.208404
    48  H    0.176789
    49  H    0.177092
    50  H    0.184007
    51  H    0.147688
    52  H    0.226936
    53  H    0.389837
    54  H    0.211212
    55  H    0.210240
    56  H    0.176404
    57  H    0.395324
    58  H    0.164149
    59  H    0.199118
    60  H    0.185862
    61  H    0.382450
    62  H    0.218606
    63  H    0.177171
    64  H    0.201115
 Sum of Mulliken atomic charges =   0.00000

 Dipole moment (field-independent basis, Debye):
    X=              2.1344    Y=             -1.6481    Z=             -8.2040  Tot=              8.6359
 Quadrupole moment (field-independent basis, Debye-Ang):
   XX=           -191.2928   YY=           -152.4985   ZZ=           -175.5963
   XY=             -5.4638   XZ=            -20.8188   YZ=             -8.6034

 Normal termination of Gaussian 09 at Thu Dec  5 18:48:08 2019.
