 Gaussian 09, Revision A.02,
 Gaussian 09:  EM64L-G09RevA.02 11-Jun-2009

 ---------------------------------
 #SP HF/6-31G* Geom=(ModRedundant)
 ---------------------------------

 ------------
 paramfit run
 ------------
 Symbolic Z-matrix:
 Charge =  0 Multiplicity = 1

                         Standard orientation:
 ---------------------------------------------------------------------
 Center     Atomic      Atomic             Coordinates (Angstroms)
 Number     Number       Type             X           Y           Z
 ---------------------------------------------------------------------
      1          6    20001001        3.338149    1.831437   -2.314226
      2          7    20001014        3.799207    0.762658   -1.452609
      3          6    20001002        4.021282    1.002691   -0.139150
      4          8    20001024        3.644770    2.002647    0.406813
      5          6    90000001        4.667411   -0.139782    0.665000
      6          6    90000002        5.268228    0.419423    1.958889
      7          6    90000002        3.618503   -1.246925    0.957626
      8          6    90000002        2.365261   -0.890638    1.777430
      9          6    90000002        1.183965   -0.239096    1.031327
     10          6    20001004        0.664339   -1.055262   -0.128905
     11          6    20001004       -0.383898   -1.862606   -0.141262
     12          6    90000002       -1.320362   -2.168956    1.002826
     13          6    90000002       -2.672513   -1.437042    0.928289
     14          6    90000002       -2.791068   -0.536201   -0.308378
     15          6    90000002       -4.164645    0.121044   -0.601566
     16          6    90000002       -3.998211    1.011224   -1.843875
     17          7    20001014       -5.131346   -0.931043   -0.884651
     18          6    20001002       -6.459691   -0.656762   -1.037380
     19          6    20001001       -7.373323   -1.857405   -0.944974
     20          8    20001024       -6.877926    0.450827   -1.230936
     21          6    20001002       -4.628360    0.876717    0.664393
     22          8    20001024       -5.187263    0.288401    1.550644
     23          7    20001014       -4.289734    2.179835    0.770216
     24          6    20001001       -4.735851    2.959706    1.906430
     25          7    20001014        5.702020   -0.809626   -0.136451
     26          6    20001002        6.804121   -0.176759   -0.630944
     27          6    20001001        7.909373   -1.093144   -1.113414
     28          8    20001024        6.890985    1.016894   -0.692477
     29          1    20001035        4.084036    2.610067   -2.425306
     30          1    20001035        2.441653    2.271223   -1.902395
     31          1    20001035        3.109188    1.416278   -3.287660
     32          1    20001029        4.339251    0.041225   -1.869950
     33          1    20001034        4.522348    0.932725    2.546356
     34          1    20001034        5.683336   -0.394588    2.545667
     35          1    20001034        6.052785    1.127209    1.734311
     36          1    20001034        4.152515   -2.018096    1.508396
     37          1    20001034        3.321036   -1.696849    0.015627
     38          1    20001034        2.005423   -1.820375    2.208389
     39          1    20001034        2.637513   -0.256248    2.614568
     40          1    20001034        1.466372    0.742990    0.674794
     41          1    20001034        0.395791   -0.078157    1.758455
     42          1    20001033        1.220661   -0.953756   -1.046683
     43          1    20001033       -0.609538   -2.363435   -1.069711
     44          1    20001034       -0.852577   -1.921640    1.948066
     45          1    20001034       -1.499476   -3.243206    1.025183
     46          1    20001034       -3.456335   -2.189341    0.934915
     47          1    20001034       -2.812881   -0.852895    1.828233
     48          1    20001034       -2.524379   -1.105196   -1.196440
     49          1    20001034       -2.066194    0.264901   -0.223858
     50          1    20001034       -3.773969    0.379731   -2.695646
     51          1    20001034       -3.169843    1.701821   -1.724447
     52          1    20001034       -4.899754    1.563730   -2.062271
     53          1    20001029       -4.934300   -1.812104   -0.467978
     54          1    20001034       -8.309038   -1.627609   -1.431483
     55          1    20001034       -7.567368   -2.064560    0.103147
     56          1    20001034       -6.932618   -2.741233   -1.393314
     57          1    20001029       -4.054218    2.675702   -0.056802
     58          1    20001035       -4.262785    3.932039    1.865236
     59          1    20001035       -4.448005    2.466357    2.823151
     60          1    20001035       -5.813607    3.086932    1.909345
     61          1    20001029        5.779691   -1.793185   -0.001818
     62          1    20001034        8.529327   -0.553459   -1.814392
     63          1    20001034        7.522834   -1.990741   -1.582943
     64          1    20001034        8.521306   -1.389164   -0.267417
 ---------------------------------------------------------------------

 SCF Done:  E(RHF) =  -1295.61229675     A.U. after   14 cycles

 The electronic state is 1-A.
 Alpha  occ. eigenvalues --  -20.53747 -20.52016 -20.51909 -20.51445 -15.59711
 Alpha  occ. eigenvalues --  -15.57745 -15.57694 -15.57343 -11.36063 -11.34117
 Alpha  occ. eigenvalues --  -11.34021 -11.33504 -11.29148 -11.28233 -11.25083
 Alpha  occ. eigenvalues --  -11.24890 -11.24434 -11.24116 -11.22945 -11.22826
 Alpha  occ. eigenvalues --  -11.22445 -11.22441 -11.22363 -11.22191 -11.22048
 Alpha  occ. eigenvalues --  -11.21813 -11.21526 -11.20969  -1.40689  -1.39222
 Alpha  occ. eigenvalues --   -1.38871  -1.37951  -1.25544  -1.23355  -1.22463
 Alpha  occ. eigenvalues --   -1.22237  -1.10971  -1.09293  -1.07039  -1.04248
 Alpha  occ. eigenvalues --   -1.01179  -0.99313  -0.98654  -0.95682  -0.95095
 Alpha  occ. eigenvalues --   -0.94469  -0.92361  -0.87340  -0.85693  -0.82929
 Alpha  occ. eigenvalues --   -0.81255  -0.79324  -0.78762  -0.77333  -0.76713
 Alpha  occ. eigenvalues --   -0.71633  -0.71345  -0.71199  -0.69045  -0.67726
 Alpha  occ. eigenvalues --   -0.67063  -0.65998  -0.64554  -0.64077  -0.63481
 Alpha  occ. eigenvalues --   -0.62830  -0.62548  -0.61471  -0.61336  -0.61117
 Alpha  occ. eigenvalues --   -0.60788  -0.59842  -0.59480  -0.58747  -0.58530
 Alpha  occ. eigenvalues --   -0.58296  -0.57663  -0.56584  -0.56566  -0.56139
 Alpha  occ. eigenvalues --   -0.55651  -0.54992  -0.54715  -0.54642  -0.53541
 Alpha  occ. eigenvalues --   -0.53367  -0.52956  -0.52700  -0.52281  -0.51482
 Alpha  occ. eigenvalues --   -0.51156  -0.50518  -0.49663  -0.49269  -0.48650
 Alpha  occ. eigenvalues --   -0.47198  -0.46608  -0.46537  -0.44573  -0.42980
 Alpha  occ. eigenvalues --   -0.42070  -0.41300  -0.40906  -0.39420  -0.38698
 Alpha  occ. eigenvalues --   -0.38484  -0.38108  -0.34607
 Alpha virt. eigenvalues --    0.17439   0.18707   0.19822   0.19900   0.20133
 Alpha virt. eigenvalues --    0.21218   0.22025   0.23061   0.23276   0.23420
 Alpha virt. eigenvalues --    0.25057   0.25422   0.26350   0.27021   0.27579

 Mulliken atomic charges:
              1
     1  C   -0.279273
     2  N   -0.783331
     3  C    0.822075
     4  O   -0.629138
     5  C    0.102231
     6  C   -0.472740
     7  C   -0.334667
     8  C   -0.311366
     9  C   -0.371730
    10  C   -0.180973
    11  C   -0.184689
    12  C   -0.352404
    13  C   -0.322109
    14  C   -0.326921
    15  C    0.092715
    16  C   -0.509582
    17  N   -0.787653
    18  C    0.767596
    19  C   -0.595487
    20  O   -0.614133
    21  C    0.819788
    22  O   -0.641544
    23  N   -0.805878
    24  C   -0.275160
    25  N   -0.843118
    26  C    0.744502
    27  C   -0.588719
    28  O   -0.591919
    29  H    0.187462
    30  H    0.196102
    31  H    0.163073
    32  H    0.391813
    33  H    0.198420
    34  H    0.144630
    35  H    0.212599
    36  H    0.162033
    37  H    0.182629
    38  H    0.165982
    39  H    0.179432
    40  H    0.211173
    41  H    0.171010
    42  H    0.180093
    43  H    0.172640
    44  H    0.178545
    45  H    0.169899
    46  H    0.153229
    47  H    0.198420
    48  H    0.176861
    49  H    0.190697
    50  H    0.182525
    51  H    0.150718
    52  H    0.225334
    53  H    0.388405
    54  H    0.210822
    55  H    0.208758
    56  H    0.175610
    57  H    0.396389
    58  H    0.166390
    59  H    0.196681
    60  H    0.184603
    61  H    0.382900
    62  H    0.218773
    63  H    0.177408
    64  H    0.201569
 Sum of Mulliken atomic charges =   0.00000

 Dipole moment (field-independent basis, Debye):
    X=              4.0635    Y=             -6.1709    Z=             -1.9894  Tot=              7.6518
 Quadrupole moment (field-independent basis, Debye-Ang):
   XX=           -193.5108   YY=           -163.8463   ZZ=           -168.8793
   XY=            -23.1313   XZ=             -2.2848   YZ=              1.7803

 Normal termination of Gaussian 09 at Thu Dec  5 18:54:35 2019.
