 Gaussian 09, Revision A.02,
 Gaussian 09:  EM64L-G09RevA.02 11-Jun-2009

 ---------------------------------
 #SP HF/6-31G* Geom=(ModRedundant)
 ---------------------------------

 ------------
 paramfit run
 ------------
 Symbolic Z-matrix:
 Charge =  0 Multiplicity = 1

                         Standard orientation:
 ---------------------------------------------------------------------
 Center     Atomic      Atomic             Coordinates (Angstroms)
 Number     Number       Type             X           Y           Z
 ---------------------------------------------------------------------
      1          6    20001001       -3.688990    2.791715    0.904336
      2          7    20001014       -4.057769    1.399543    0.752341
      3          6    20001002       -4.274400    0.889585   -0.482618
      4          8    20001024       -3.961390    1.470548   -1.484742
      5          6    90000001       -4.823433   -0.547208   -0.542405
      6          6    90000002       -5.440975   -0.803564   -1.921087
      7          6    90000002       -3.693138   -1.564637   -0.227963
      8          6    90000002       -2.455064   -1.611662   -1.141526
      9          6    90000002       -1.336168   -0.583076   -0.883220
     10          6    20001004       -0.778944   -0.620354    0.520486
     11          6    20001004        0.324085   -1.222720    0.934294
     12          6    90000002        1.299155   -2.023607    0.105095
     13          6    90000002        2.593952   -1.271738   -0.252341
     14          6    90000002        3.258855   -0.623282    0.969266
     15          6    90000002        4.660281    0.013877    0.783046
     16          6    90000002        5.068117    0.640535    2.126333
     17          7    20001014        5.604942   -1.037611    0.431592
     18          6    20001002        6.888372   -0.750414    0.066376
     19          6    20001001        7.621705   -1.876879   -0.625074
     20          8    20001024        7.402427    0.313185    0.275297
     21          6    20001002        4.592552    1.016210   -0.391462
     22          8    20001024        4.703736    0.630813   -1.524174
     23          7    20001014        4.304233    2.302159   -0.096187
     24          6    20001001        4.275565    3.302502   -1.143418
     25          7    20001014       -5.820694   -0.759540    0.516753
     26          6    20001002       -6.973446   -0.039233    0.626259
     27          6    20001001       -8.018142   -0.634041    1.547634
     28          8    20001024       -7.146625    0.995556    0.047156
     29          1    20001035       -4.490502    3.456400    0.603137
     30          1    20001035       -2.819521    3.006950    0.300662
     31          1    20001035       -3.447238    2.973740    1.943940
     32          1    20001029       -4.551663    0.974162    1.501610
     33          1    20001034       -4.724036   -0.629955   -2.708990
     34          1    20001034       -5.786793   -1.831464   -1.976477
     35          1    20001034       -6.277883   -0.141157   -2.087608
     36          1    20001034       -4.161210   -2.545516   -0.272735
     37          1    20001034       -3.380048   -1.423893    0.801816
     38          1    20001034       -2.022360   -2.600648   -1.021979
     39          1    20001034       -2.757983   -1.539185   -2.180930
     40          1    20001034       -1.694154    0.416007   -1.095450
     41          1    20001034       -0.549462   -0.778270   -1.603516
     42          1    20001033       -1.356429   -0.086154    1.257544
     43          1    20001033        0.569417   -1.137164    1.981315
     44          1    20001034        0.830780   -2.349051   -0.815870
     45          1    20001034        1.555123   -2.930329    0.651839
     46          1    20001034        3.266737   -1.979867   -0.728039
     47          1    20001034        2.376139   -0.519973   -0.999494
     48          1    20001034        3.357715   -1.362440    1.761357
     49          1    20001034        2.604143    0.152436    1.348689
     50          1    20001034        5.187437   -0.151357    2.856574
     51          1    20001034        4.299530    1.310931    2.496773
     52          1    20001034        6.004596    1.172475    2.050269
     53          1    20001029        5.210174   -1.828013   -0.024627
     54          1    20001034        8.684893   -1.711949   -0.538526
     55          1    20001034        7.352730   -1.870393   -1.677089
     56          1    20001034        7.364627   -2.845980   -0.211387
     57          1    20001029        4.457742    2.619997    0.831565
     58          1    20001035        3.910110    4.230868   -0.724492
     59          1    20001035        3.609497    2.985642   -1.932455
     60          1    20001035        5.259591    3.466587   -1.570646
     61          1    20001029       -5.825428   -1.667139    0.926374
     62          1    20001034       -8.686843    0.150734    1.870032
     63          1    20001034       -7.576221   -1.116011    2.412482
     64          1    20001034       -8.593014   -1.375744    1.002474
 ---------------------------------------------------------------------

 SCF Done:  E(RHF) =  -1295.62150404     A.U. after   14 cycles

 The electronic state is 1-A.
 Alpha  occ. eigenvalues --  -20.53673 -20.52021 -20.51887 -20.51553 -15.59632
 Alpha  occ. eigenvalues --  -15.57850 -15.57578 -15.57489 -11.35992 -11.34228
 Alpha  occ. eigenvalues --  -11.33898 -11.33636 -11.29052 -11.28514 -11.24955
 Alpha  occ. eigenvalues --  -11.24927 -11.24379 -11.24025 -11.23315 -11.22715
 Alpha  occ. eigenvalues --  -11.22552 -11.22501 -11.22346 -11.22257 -11.22051
 Alpha  occ. eigenvalues --  -11.21763 -11.21628 -11.20874  -1.40611  -1.39334
 Alpha  occ. eigenvalues --   -1.38744  -1.38057  -1.25459  -1.23513  -1.22564
 Alpha  occ. eigenvalues --   -1.22123  -1.10803  -1.09269  -1.07166  -1.04231
 Alpha  occ. eigenvalues --   -1.01224  -0.99319  -0.98723  -0.95565  -0.95108
 Alpha  occ. eigenvalues --   -0.94545  -0.92237  -0.87280  -0.85712  -0.82887
 Alpha  occ. eigenvalues --   -0.81328  -0.79462  -0.78749  -0.77221  -0.76833
 Alpha  occ. eigenvalues --   -0.71829  -0.71300  -0.71098  -0.68967  -0.67887
 Alpha  occ. eigenvalues --   -0.66837  -0.65884  -0.64531  -0.63956  -0.63650
 Alpha  occ. eigenvalues --   -0.62624  -0.62397  -0.61736  -0.61394  -0.61169
 Alpha  occ. eigenvalues --   -0.60907  -0.59907  -0.59365  -0.58718  -0.58449
 Alpha  occ. eigenvalues --   -0.58262  -0.57823  -0.56569  -0.56404  -0.56235
 Alpha  occ. eigenvalues --   -0.55533  -0.54873  -0.54728  -0.54599  -0.53857
 Alpha  occ. eigenvalues --   -0.53124  -0.52851  -0.52476  -0.52180  -0.51528
 Alpha  occ. eigenvalues --   -0.51056  -0.50365  -0.49740  -0.49248  -0.48502
 Alpha  occ. eigenvalues --   -0.48209  -0.46935  -0.46419  -0.44576  -0.42895
 Alpha  occ. eigenvalues --   -0.41970  -0.41464  -0.41033  -0.39318  -0.38799
 Alpha  occ. eigenvalues --   -0.38361  -0.38239  -0.34540
 Alpha virt. eigenvalues --    0.17398   0.18778   0.19671   0.19968   0.20220
 Alpha virt. eigenvalues --    0.21645   0.21843   0.23155   0.23218   0.23843
 Alpha virt. eigenvalues --    0.25260   0.25599   0.26531   0.27337   0.27606

 Mulliken atomic charges:
              1
     1  C   -0.279589
     2  N   -0.783409
     3  C    0.821914
     4  O   -0.628236
     5  C    0.102301
     6  C   -0.472795
     7  C   -0.334369
     8  C   -0.311884
     9  C   -0.373502
    10  C   -0.180622
    11  C   -0.179263
    12  C   -0.350901
    13  C   -0.308860
    14  C   -0.331997
    15  C    0.091658
    16  C   -0.509655
    17  N   -0.787649
    18  C    0.767356
    19  C   -0.595641
    20  O   -0.613920
    21  C    0.820645
    22  O   -0.639763
    23  N   -0.805777
    24  C   -0.275536
    25  N   -0.843093
    26  C    0.744545
    27  C   -0.588682
    28  O   -0.591801
    29  H    0.187126
    30  H    0.197912
    31  H    0.162186
    32  H    0.391412
    33  H    0.198939
    34  H    0.144223
    35  H    0.212523
    36  H    0.161522
    37  H    0.182125
    38  H    0.164723
    39  H    0.179966
    40  H    0.213127
    41  H    0.174958
    42  H    0.180290
    43  H    0.171076
    44  H    0.176963
    45  H    0.160536
    46  H    0.151072
    47  H    0.197789
    48  H    0.172340
    49  H    0.188317
    50  H    0.183193
    51  H    0.148679
    52  H    0.226481
    53  H    0.389516
    54  H    0.211109
    55  H    0.209367
    56  H    0.176154
    57  H    0.395359
    58  H    0.165259
    59  H    0.199573
    60  H    0.184750
    61  H    0.382674
    62  H    0.218636
    63  H    0.177213
    64  H    0.201438
 Sum of Mulliken atomic charges =   0.00000

 Dipole moment (field-independent basis, Debye):
    X=             -3.0053    Y=             -4.9253    Z=              5.8255  Tot=              8.1991
 Quadrupole moment (field-independent basis, Debye-Ang):
   XX=           -194.3843   YY=           -157.3857   ZZ=           -172.7079
   XY=             15.7311   XZ=            -15.8802   YZ=              8.5663

 Normal termination of Gaussian 09 at Thu Dec  5 19:21:12 2019.
