 Gaussian 09, Revision A.02,
 Gaussian 09:  EM64L-G09RevA.02 11-Jun-2009

 ---------------------------------
 #SP HF/6-31G* Geom=(ModRedundant)
 ---------------------------------

 ------------
 paramfit run
 ------------
 Symbolic Z-matrix:
 Charge =  0 Multiplicity = 1

                         Standard orientation:
 ---------------------------------------------------------------------
 Center     Atomic      Atomic             Coordinates (Angstroms)
 Number     Number       Type             X           Y           Z
 ---------------------------------------------------------------------
      1          6    20001001       -3.492037    2.981438   -0.064411
      2          7    20001014       -3.897710    1.622946    0.230842
      3          6    20001002       -3.932512    0.698924   -0.757632
      4          8    20001024       -3.431055    0.883911   -1.831907
      5          6    90000001       -4.533105   -0.670535   -0.392588
      6          6    90000002       -4.926937   -1.415654   -1.672250
      7          6    90000002       -3.520583   -1.489713    0.453195
      8          6    90000002       -2.152756   -1.845114   -0.157031
      9          6    90000002       -1.043191   -0.776550   -0.096404
     10          6    20001004       -0.727115   -0.297127    1.300924
     11          6    20001004        0.262278   -0.693774    2.084843
     12          6    90000002        1.320625   -1.725615    1.776688
     13          6    90000002        2.691451   -1.134608    1.401042
     14          6    90000002        2.753779   -0.663856   -0.058211
     15          6    90000002        4.014364    0.112385   -0.519756
     16          6    90000002        3.853861    0.409727   -2.019515
     17          7    20001014        4.083426    1.365990    0.218647
     18          6    20001002        5.167071    2.190526    0.124250
     19          6    20001001        5.269292    3.235988    1.211156
     20          8    20001024        5.980863    2.098721   -0.752367
     21          6    20001002        5.264217   -0.726050   -0.168166
     22          8    20001024        5.735122   -0.677950    0.936309
     23          7    20001014        5.728526   -1.575713   -1.109694
     24          6    20001001        6.925705   -2.353334   -0.864199
     25          7    20001014       -5.700211   -0.501042    0.485230
     26          6    20001002       -6.819029    0.193579    0.131080
     27          6    20001001       -8.028698   -0.043997    1.011067
     28          8    20001024       -6.844221    0.947329   -0.800245
     29          1    20001035       -4.199906    3.481161   -0.715677
     30          1    20001035       -2.525669    2.977045   -0.546943
     31          1    20001035       -3.416201    3.529546    0.866277
     32          1    20001029       -4.528214    1.489272    0.986409
     33          1    20001034       -4.082523   -1.527498   -2.335114
     34          1    20001034       -5.308261   -2.399254   -1.414646
     35          1    20001034       -5.691957   -0.870004   -2.205108
     36          1    20001034       -4.021820   -2.427397    0.682829
     37          1    20001034       -3.374847   -0.982617    1.401823
     38          1    20001034       -1.794019   -2.718108    0.380376
     39          1    20001034       -2.276567   -2.156680   -1.189005
     40          1    20001034       -1.312572    0.073520   -0.709738
     41          1    20001034       -0.159025   -1.206962   -0.553384
     42          1    20001033       -1.391513    0.458511    1.687834
     43          1    20001033        0.335752   -0.232908    3.057450
     44          1    20001034        0.995053   -2.367971    0.967461
     45          1    20001034        1.438903   -2.370401    2.646662
     46          1    20001034        2.894432   -0.312213    2.081365
     47          1    20001034        3.461545   -1.871680    1.586811
     48          1    20001034        1.901011   -0.021439   -0.267070
     49          1    20001034        2.657158   -1.527888   -0.705099
     50          1    20001034        3.015171    1.083277   -2.151839
     51          1    20001034        3.635693   -0.494435   -2.578329
     52          1    20001034        4.733806    0.883071   -2.428637
     53          1    20001029        3.643665    1.358331    1.110422
     54          1    20001034        5.899856    4.041991    0.867922
     55          1    20001034        5.727898    2.782859    2.084929
     56          1    20001034        4.297722    3.624599    1.496488
     57          1    20001029        5.477291   -1.415202   -2.056492
     58          1    20001035        7.057727   -3.051336   -1.680461
     59          1    20001035        6.819305   -2.905569    0.057940
     60          1    20001035        7.806187   -1.723605   -0.787074
     61          1    20001029       -5.816237   -1.199851    1.185052
     62          1    20001034       -8.702569    0.794497    0.912080
     63          1    20001034       -7.759031   -0.175267    2.052988
     64          1    20001034       -8.541199   -0.940593    0.677509
 ---------------------------------------------------------------------

 SCF Done:  E(RHF) =  -1295.62174719     A.U. after   14 cycles

 The electronic state is 1-A.
 Alpha  occ. eigenvalues --  -20.53758 -20.52024 -20.51838 -20.51546 -15.59729
 Alpha  occ. eigenvalues --  -15.57882 -15.57687 -15.57275 -11.36074 -11.34047
 Alpha  occ. eigenvalues --  -11.34030 -11.33598 -11.29180 -11.28347 -11.25069
 Alpha  occ. eigenvalues --  -11.25035 -11.24439 -11.24169 -11.23155 -11.22919
 Alpha  occ. eigenvalues --  -11.22542 -11.22433 -11.22340 -11.22298 -11.22208
 Alpha  occ. eigenvalues --  -11.21900 -11.21486 -11.21012  -1.40699  -1.39235
 Alpha  occ. eigenvalues --   -1.38879  -1.37970  -1.25561  -1.23319  -1.22592
 Alpha  occ. eigenvalues --   -1.22231  -1.10922  -1.09255  -1.07180  -1.04264
 Alpha  occ. eigenvalues --   -1.01283  -0.99420  -0.98596  -0.95665  -0.95336
 Alpha  occ. eigenvalues --   -0.94589  -0.92129  -0.87331  -0.85595  -0.82621
 Alpha  occ. eigenvalues --   -0.81505  -0.79331  -0.79056  -0.77333  -0.76761
 Alpha  occ. eigenvalues --   -0.72075  -0.71337  -0.71279  -0.69082  -0.67927
 Alpha  occ. eigenvalues --   -0.66441  -0.65979  -0.64453  -0.64192  -0.63866
 Alpha  occ. eigenvalues --   -0.62743  -0.62470  -0.61733  -0.61310  -0.61050
 Alpha  occ. eigenvalues --   -0.60967  -0.60056  -0.59292  -0.58764  -0.58532
 Alpha  occ. eigenvalues --   -0.58295  -0.57479  -0.56872  -0.56704  -0.55770
 Alpha  occ. eigenvalues --   -0.55368  -0.54909  -0.54773  -0.54644  -0.54013
 Alpha  occ. eigenvalues --   -0.53195  -0.52933  -0.52665  -0.51944  -0.51609
 Alpha  occ. eigenvalues --   -0.51186  -0.49999  -0.49708  -0.49220  -0.48498
 Alpha  occ. eigenvalues --   -0.48255  -0.47138  -0.46374  -0.44994  -0.42996
 Alpha  occ. eigenvalues --   -0.42089  -0.41352  -0.40863  -0.39432  -0.38736
 Alpha  occ. eigenvalues --   -0.38478  -0.38181  -0.34747
 Alpha virt. eigenvalues --    0.17467   0.18696   0.19772   0.19900   0.20122
 Alpha virt. eigenvalues --    0.21719   0.22036   0.23144   0.23193   0.24025
 Alpha virt. eigenvalues --    0.25261   0.25643   0.26514   0.26896   0.27519

 Mulliken atomic charges:
              1
     1  C   -0.279736
     2  N   -0.783449
     3  C    0.821950
     4  O   -0.629104
     5  C    0.102385
     6  C   -0.472680
     7  C   -0.334809
     8  C   -0.311431
     9  C   -0.373309
    10  C   -0.182919
    11  C   -0.176928
    12  C   -0.354979
    13  C   -0.313299
    14  C   -0.332066
    15  C    0.091036
    16  C   -0.510476
    17  N   -0.785888
    18  C    0.767509
    19  C   -0.595780
    20  O   -0.614576
    21  C    0.819209
    22  O   -0.640760
    23  N   -0.806984
    24  C   -0.274872
    25  N   -0.843099
    26  C    0.744476
    27  C   -0.588747
    28  O   -0.591759
    29  H    0.187533
    30  H    0.197305
    31  H    0.163102
    32  H    0.391796
    33  H    0.197894
    34  H    0.144502
    35  H    0.212896
    36  H    0.162124
    37  H    0.182962
    38  H    0.165863
    39  H    0.178735
    40  H    0.212522
    41  H    0.170138
    42  H    0.181898
    43  H    0.172355
    44  H    0.167716
    45  H    0.174599
    46  H    0.151883
    47  H    0.193564
    48  H    0.194498
    49  H    0.173710
    50  H    0.188838
    51  H    0.148019
    52  H    0.225767
    53  H    0.390797
    54  H    0.210829
    55  H    0.207836
    56  H    0.177457
    57  H    0.396407
    58  H    0.164690
    59  H    0.196347
    60  H    0.185653
    61  H    0.382929
    62  H    0.218907
    63  H    0.177528
    64  H    0.201482
 Sum of Mulliken atomic charges =   0.00000

 Dipole moment (field-independent basis, Debye):
    X=             -4.3841    Y=             -3.6196    Z=              4.4861  Tot=              7.2420
 Quadrupole moment (field-independent basis, Debye-Ang):
   XX=           -185.3018   YY=           -162.3468   ZZ=           -173.1457
   XY=              3.6427   XZ=            -32.9972   YZ=             15.1398

 Normal termination of Gaussian 09 at Thu Dec  5 19:10:48 2019.
