 Gaussian 09, Revision A.02,
 Gaussian 09:  EM64L-G09RevA.02 11-Jun-2009

 ---------------------------------
 #SP HF/6-31G* Geom=(ModRedundant)
 ---------------------------------

 ------------
 paramfit run
 ------------
 Symbolic Z-matrix:
 Charge =  0 Multiplicity = 1

                         Standard orientation:
 ---------------------------------------------------------------------
 Center     Atomic      Atomic             Coordinates (Angstroms)
 Number     Number       Type             X           Y           Z
 ---------------------------------------------------------------------
      1          6    20001001        3.268661   -2.348362   -1.824999
      2          7    20001014        3.747346   -1.469981   -0.777835
      3          6    20001002        3.914845   -0.150306   -1.027856
      4          8    20001024        3.476789    0.381045   -2.010464
      5          6    90000001        4.583471    0.676921    0.084809
      6          6    90000002        5.115757    1.989039   -0.500732
      7          6    90000002        3.575096    0.936547    1.236928
      8          6    90000002        2.280830    1.713631    0.935843
      9          6    90000002        1.097503    0.927532    0.337160
     10          6    20001004        0.653135   -0.247843    1.175795
     11          6    20001004       -0.357605   -0.293550    2.028479
     12          6    90000002       -1.317230    0.819356    2.375343
     13          6    90000002       -2.697021    0.698631    1.703652
     14          6    90000002       -2.633542   -0.007479    0.342662
     15          6    90000002       -3.971220   -0.354146   -0.360961
     16          6    90000002       -3.631013   -0.991172   -1.718129
     17          7    20001014       -4.691265   -1.317751    0.460337
     18          6    20001002       -5.968024   -1.696591    0.161300
     19          6    20001001       -6.707675   -2.387161    1.284169
     20          8    20001024       -6.471748   -1.500066   -0.909579
     21          6    20001002       -4.823343    0.931618   -0.458044
     22          8    20001024       -5.495403    1.284944    0.473311
     23          7    20001014       -4.697912    1.678239   -1.576438
     24          6    20001001       -5.505086    2.867850   -1.753915
     25          7    20001014        5.672609   -0.088516    0.708759
     26          6    20001002        6.761660   -0.547275    0.028186
     27          6    20001001        7.921562   -0.991116    0.895221
     28          8    20001024        6.797964   -0.608044   -1.168112
     29          1    20001035        3.982879   -2.436014   -2.635653
     30          1    20001035        2.340497   -1.967328   -2.225057
     31          1    20001035        3.090675   -3.328112   -1.399835
     32          1    20001029        4.332163   -1.867852   -0.080718
     33          1    20001034        4.328908    2.550483   -0.980922
     34          1    20001034        5.546502    2.590749    0.294027
     35          1    20001034        5.875476    1.789365   -1.242273
     36          1    20001034        4.123878    1.506140    1.983669
     37          1    20001034        3.329190   -0.013998    1.699826
     38          1    20001034        1.948078    2.134079    1.880363
     39          1    20001034        2.496938    2.558204    0.289802
     40          1    20001034        1.348166    0.578802   -0.656278
     41          1    20001034        0.279269    1.627791    0.210805
     42          1    20001033        1.234673   -1.146819    1.050225
     43          1    20001033       -0.530006   -1.228075    2.539069
     44          1    20001034       -0.892466    1.779163    2.107362
     45          1    20001034       -1.449590    0.837691    3.456425
     46          1    20001034       -3.351273    0.163652    2.386385
     47          1    20001034       -3.127131    1.685075    1.590665
     48          1    20001034       -2.086903   -0.942368    0.446109
     49          1    20001034       -2.064459    0.610610   -0.341780
     50          1    20001034       -3.125554   -1.933560   -1.542068
     51          1    20001034       -2.956062   -0.362274   -2.289364
     52          1    20001034       -4.518960   -1.188730   -2.299732
     53          1    20001029       -4.484282   -1.285812    1.432371
     54          1    20001034       -7.520611   -2.963711    0.869698
     55          1    20001034       -7.119104   -1.629752    1.944611
     56          1    20001034       -6.057594   -3.032280    1.865202
     57          1    20001029       -4.338593    1.246780   -2.395000
     58          1    20001035       -5.170680    3.382473   -2.645126
     59          1    20001035       -5.383299    3.521661   -0.902843
     60          1    20001035       -6.558794    2.628285   -1.854216
     61          1    20001029        5.788922    0.050398    1.687903
     62          1    20001034        8.540163   -1.672091    0.329023
     63          1    20001034        7.590686   -1.471603    1.809116
     64          1    20001034        8.517441   -0.124729    1.163742
 ---------------------------------------------------------------------

 SCF Done:  E(RHF) =  -1295.61597099     A.U. after   14 cycles

 The electronic state is 1-A.
 Alpha  occ. eigenvalues --  -20.53772 -20.52053 -20.51857 -20.51424 -15.59741
 Alpha  occ. eigenvalues --  -15.57746 -15.57717 -15.57287 -11.36088 -11.34070
 Alpha  occ. eigenvalues --  -11.34056 -11.33469 -11.29190 -11.28176 -11.25079
 Alpha  occ. eigenvalues --  -11.24937 -11.24452 -11.24169 -11.22906 -11.22773
 Alpha  occ. eigenvalues --  -11.22515 -11.22420 -11.22406 -11.22237 -11.22148
 Alpha  occ. eigenvalues --  -11.21916 -11.21403 -11.21014  -1.40714  -1.39185
 Alpha  occ. eigenvalues --   -1.38907  -1.37919  -1.25575  -1.23295  -1.22464
 Alpha  occ. eigenvalues --   -1.22259  -1.11010  -1.09278  -1.07037  -1.04257
 Alpha  occ. eigenvalues --   -1.01202  -0.99355  -0.98619  -0.95695  -0.95185
 Alpha  occ. eigenvalues --   -0.94480  -0.92311  -0.87352  -0.85641  -0.82796
 Alpha  occ. eigenvalues --   -0.81268  -0.79267  -0.78905  -0.77360  -0.76686
 Alpha  occ. eigenvalues --   -0.71802  -0.71338  -0.71224  -0.69074  -0.67916
 Alpha  occ. eigenvalues --   -0.66610  -0.66020  -0.64534  -0.64220  -0.63627
 Alpha  occ. eigenvalues --   -0.62838  -0.62547  -0.61515  -0.61324  -0.60990
 Alpha  occ. eigenvalues --   -0.60843  -0.59958  -0.59394  -0.58752  -0.58587
 Alpha  occ. eigenvalues --   -0.58305  -0.57526  -0.56792  -0.56579  -0.55941
 Alpha  occ. eigenvalues --   -0.55614  -0.54981  -0.54714  -0.54616  -0.53605
 Alpha  occ. eigenvalues --   -0.53177  -0.52980  -0.52744  -0.52207  -0.51513
 Alpha  occ. eigenvalues --   -0.51198  -0.50311  -0.49661  -0.49324  -0.48735
 Alpha  occ. eigenvalues --   -0.47222  -0.47102  -0.46342  -0.44713  -0.43009
 Alpha  occ. eigenvalues --   -0.42106  -0.41271  -0.40869  -0.39451  -0.38669
 Alpha  occ. eigenvalues --   -0.38509  -0.38092  -0.34631
 Alpha virt. eigenvalues --    0.17328   0.18683   0.19835   0.19967   0.20112
 Alpha virt. eigenvalues --    0.21700   0.22032   0.23052   0.23302   0.23489
 Alpha virt. eigenvalues --    0.25131   0.25777   0.26383   0.26679   0.27674

 Mulliken atomic charges:
              1
     1  C   -0.279541
     2  N   -0.783394
     3  C    0.822057
     4  O   -0.629433
     5  C    0.102291
     6  C   -0.472687
     7  C   -0.334793
     8  C   -0.311311
     9  C   -0.371323
    10  C   -0.178100
    11  C   -0.184439
    12  C   -0.351672
    13  C   -0.321274
    14  C   -0.327379
    15  C    0.091024
    16  C   -0.509711
    17  N   -0.787360
    18  C    0.767491
    19  C   -0.595496
    20  O   -0.614040
    21  C    0.819259
    22  O   -0.641939
    23  N   -0.806481
    24  C   -0.274901
    25  N   -0.843120
    26  C    0.744488
    27  C   -0.588739
    28  O   -0.591850
    29  H    0.187525
    30  H    0.196593
    31  H    0.163333
    32  H    0.391861
    33  H    0.198013
    34  H    0.144703
    35  H    0.212762
    36  H    0.162269
    37  H    0.182831
    38  H    0.166427
    39  H    0.179111
    40  H    0.211508
    41  H    0.169104
    42  H    0.181264
    43  H    0.170113
    44  H    0.173625
    45  H    0.172868
    46  H    0.149110
    47  H    0.197680
    48  H    0.193200
    49  H    0.180461
    50  H    0.184066
    51  H    0.151467
    52  H    0.224832
    53  H    0.388579
    54  H    0.210762
    55  H    0.208443
    56  H    0.175648
    57  H    0.396800
    58  H    0.165535
    59  H    0.195999
    60  H    0.184998
    61  H    0.382954
    62  H    0.218880
    63  H    0.177482
    64  H    0.201568
 Sum of Mulliken atomic charges =   0.00000

 Dipole moment (field-independent basis, Debye):
    X=              4.5548    Y=             -1.2668    Z=              5.6837  Tot=              7.3929
 Quadrupole moment (field-independent basis, Debye-Ang):
   XX=           -192.1829   YY=           -161.9042   ZZ=           -171.1703
   XY=             -4.2063   XZ=             27.3974   YZ=             -8.2333

 Normal termination of Gaussian 09 at Thu Dec  5 18:37:31 2019.
