 Gaussian 09, Revision A.02,
 Gaussian 09:  EM64L-G09RevA.02 11-Jun-2009

 ---------------------------------
 #SP HF/6-31G* Geom=(ModRedundant)
 ---------------------------------

 ------------
 paramfit run
 ------------
 Symbolic Z-matrix:
 Charge =  0 Multiplicity = 1

                         Standard orientation:
 ---------------------------------------------------------------------
 Center     Atomic      Atomic             Coordinates (Angstroms)
 Number     Number       Type             X           Y           Z
 ---------------------------------------------------------------------
      1          6    20001001       -3.313008    2.786939   -1.058296
      2          7    20001014       -3.776053    1.627265   -0.324818
      3          6    20001002       -3.889839    0.433136   -0.951889
      4          8    20001024       -3.415741    0.224858   -2.034293
      5          6    90000001       -4.545681   -0.702574   -0.146024
      6          6    90000002       -5.018584   -1.803010   -1.101664
      7          6    90000002       -3.547831   -1.255273    0.907741
      8          6    90000002       -2.220519   -1.870584    0.428917
      9          6    90000002       -1.057519   -0.908019    0.116608
     10          6    20001004       -0.671606   -0.014770    1.272227
     11          6    20001004        0.322226   -0.188232    2.128361
     12          6    90000002        1.316837   -1.323716    2.162690
     13          6    90000002        2.702253   -0.970002    1.592539
     14          6    90000002        2.622322   -0.303240    0.212702
     15          6    90000002        3.929381    0.265033   -0.398289
     16          6    90000002        3.589618    0.815053   -1.793097
     17          7    20001014        4.403763    1.350708    0.448943
     18          6    20001002        5.613941    1.944968    0.235918
     19          6    20001001        6.131856    2.769139    1.392340
     20          8    20001024        6.225996    1.826956   -0.789073
     21          6    20001002        4.998123   -0.851443   -0.398287
     22          8    20001024        5.647115   -1.069044    0.589330
     23          7    20001014        5.092529   -1.622421   -1.503122
     24          6    20001001        6.106592   -2.653190   -1.589107
     25          7    20001014       -5.673036   -0.186115    0.643768
     26          6    20001002       -6.766879    0.417129    0.096706
     27          6    20001001       -7.956998    0.553104    1.023661
     28          8    20001024       -6.785295    0.822590   -1.030859
     29          1    20001035       -4.016262    3.084825   -1.827482
     30          1    20001035       -2.364640    2.567827   -1.526601
     31          1    20001035       -3.178976    3.605359   -0.362180
     32          1    20001029       -4.386993    1.786548    0.441777
     33          1    20001034       -4.203314   -2.175640   -1.702842
     34          1    20001034       -5.439832   -2.623143   -0.527930
     35          1    20001034       -5.772654   -1.419553   -1.773426
     36          1    20001034       -4.087411   -2.034357    1.441692
     37          1    20001034       -3.345479   -0.473671    1.633298
     38          1    20001034       -1.888214   -2.537446    1.219161
     39          1    20001034       -2.393980   -2.496592   -0.440220
     40          1    20001034       -1.304299   -0.292943   -0.739047
     41          1    20001034       -0.211653   -1.515477   -0.185617
     42          1    20001033       -1.284169    0.863385    1.397611
     43          1    20001033        0.450931    0.561890    2.892896
     44          1    20001034        0.932844   -2.176477    1.616052
     45          1    20001034        1.431579   -1.652076    3.194973
     46          1    20001034        3.197780   -0.319539    2.307888
     47          1    20001034        3.305681   -1.866484    1.537527
     48          1    20001034        1.914275    0.521833    0.250878
     49          1    20001034        2.225056   -1.020507   -0.495859
     50          1    20001034        2.915031    1.655676   -1.679664
     51          1    20001034        3.081526    0.069896   -2.396391
     52          1    20001034        4.471841    1.158791   -2.312007
     53          1    20001029        4.130600    1.294940    1.403398
     54          1    20001034        6.861190    3.474766    1.024611
     55          1    20001034        6.616755    2.104471    2.101010
     56          1    20001034        5.335806    3.296742    1.906461
     57          1    20001029        4.728067   -1.271360   -2.357073
     58          1    20001035        5.937653   -3.229830   -2.489034
     59          1    20001035        6.035190   -3.307527   -0.732737
     60          1    20001035        7.106738   -2.232853   -1.616978
     61          1    20001029       -5.800531   -0.607751    1.536805
     62          1    20001034       -8.591023    1.350030    0.663254
     63          1    20001034       -7.659753    0.756518    2.046314
     64          1    20001034       -8.524485   -0.371904    1.012701
 ---------------------------------------------------------------------

 SCF Done:  E(RHF) =  -1295.62045110     A.U. after   14 cycles

 The electronic state is 1-A.
 Alpha  occ. eigenvalues --  -20.53778 -20.52057 -20.51833 -20.51450 -15.59751
 Alpha  occ. eigenvalues --  -15.57779 -15.57718 -15.57262 -11.36094 -11.34061
 Alpha  occ. eigenvalues --  -11.34046 -11.33490 -11.29204 -11.28212 -11.25067
 Alpha  occ. eigenvalues --  -11.24981 -11.24457 -11.24193 -11.22944 -11.22777
 Alpha  occ. eigenvalues --  -11.22579 -11.22458 -11.22377 -11.22299 -11.22234
 Alpha  occ. eigenvalues --  -11.21940 -11.21378 -11.21031  -1.40721  -1.39185
 Alpha  occ. eigenvalues --   -1.38911  -1.37921  -1.25584  -1.23279  -1.22495
 Alpha  occ. eigenvalues --   -1.22261  -1.11000  -1.09261  -1.07082  -1.04263
 Alpha  occ. eigenvalues --   -1.01239  -0.99393  -0.98601  -0.95693  -0.95261
 Alpha  occ. eigenvalues --   -0.94507  -0.92238  -0.87349  -0.85608  -0.82705
 Alpha  occ. eigenvalues --   -0.81343  -0.79263  -0.79003  -0.77363  -0.76694
 Alpha  occ. eigenvalues --   -0.71933  -0.71346  -0.71225  -0.69089  -0.67953
 Alpha  occ. eigenvalues --   -0.66431  -0.66009  -0.64462  -0.64318  -0.63733
 Alpha  occ. eigenvalues --   -0.62812  -0.62530  -0.61626  -0.61312  -0.60975
 Alpha  occ. eigenvalues --   -0.60933  -0.60040  -0.59316  -0.58732  -0.58590
 Alpha  occ. eigenvalues --   -0.58303  -0.57452  -0.56873  -0.56587  -0.55796
 Alpha  occ. eigenvalues --   -0.55552  -0.54970  -0.54703  -0.54628  -0.53760
 Alpha  occ. eigenvalues --   -0.53115  -0.52969  -0.52707  -0.52090  -0.51550
 Alpha  occ. eigenvalues --   -0.51212  -0.50109  -0.49680  -0.49324  -0.48759
 Alpha  occ. eigenvalues --   -0.47691  -0.47123  -0.46336  -0.44863  -0.43017
 Alpha  occ. eigenvalues --   -0.42114  -0.41271  -0.40854  -0.39458  -0.38673
 Alpha  occ. eigenvalues --   -0.38510  -0.38103  -0.34730
 Alpha virt. eigenvalues --    0.17265   0.18677   0.19813   0.19954   0.20088
 Alpha virt. eigenvalues --    0.21881   0.22015   0.23049   0.23178   0.23703
 Alpha virt. eigenvalues --    0.25153   0.25705   0.26538   0.26765   0.27725

 Mulliken atomic charges:
              1
     1  C   -0.279675
     2  N   -0.783495
     3  C    0.821958
     4  O   -0.629287
     5  C    0.102368
     6  C   -0.472683
     7  C   -0.334855
     8  C   -0.311577
     9  C   -0.370940
    10  C   -0.180251
    11  C   -0.179775
    12  C   -0.352610
    13  C   -0.316547
    14  C   -0.330686
    15  C    0.091334
    16  C   -0.509611
    17  N   -0.786810
    18  C    0.767477
    19  C   -0.595528
    20  O   -0.614206
    21  C    0.819242
    22  O   -0.641740
    23  N   -0.806798
    24  C   -0.274802
    25  N   -0.843118
    26  C    0.744476
    27  C   -0.588747
    28  O   -0.591779
    29  H    0.187591
    30  H    0.196941
    31  H    0.163333
    32  H    0.391844
    33  H    0.197871
    34  H    0.144667
    35  H    0.212881
    36  H    0.162332
    37  H    0.182798
    38  H    0.166382
    39  H    0.179004
    40  H    0.212154
    41  H    0.169870
    42  H    0.182108
    43  H    0.170174
    44  H    0.170068
    45  H    0.173670
    46  H    0.147457
    47  H    0.195606
    48  H    0.197677
    49  H    0.174907
    50  H    0.186038
    51  H    0.150488
    52  H    0.224824
    53  H    0.389057
    54  H    0.210755
    55  H    0.208177
    56  H    0.176075
    57  H    0.396693
    58  H    0.164993
    59  H    0.196027
    60  H    0.185255
    61  H    0.382955
    62  H    0.218930
    63  H    0.177506
    64  H    0.201552
 Sum of Mulliken atomic charges =   0.00000

 Dipole moment (field-independent basis, Debye):
    X=             -4.6792    Y=             -1.0052    Z=              5.5030  Tot=              7.2930
 Quadrupole moment (field-independent basis, Debye-Ang):
   XX=           -190.2569   YY=           -161.6126   ZZ=           -171.9373
   XY=              0.5130   XZ=            -30.8258   YZ=             12.2789

 Normal termination of Gaussian 09 at Thu Dec  5 18:26:11 2019.
