 Gaussian 09, Revision A.02,
 Gaussian 09:  EM64L-G09RevA.02 11-Jun-2009

 ---------------------------------
 #SP HF/6-31G* Geom=(ModRedundant)
 ---------------------------------

 ------------
 paramfit run
 ------------
 Symbolic Z-matrix:
 Charge =  0 Multiplicity = 1

                         Standard orientation:
 ---------------------------------------------------------------------
 Center     Atomic      Atomic             Coordinates (Angstroms)
 Number     Number       Type             X           Y           Z
 ---------------------------------------------------------------------
      1          6    20001001        3.457881    2.358453   -1.749472
      2          7    20001014        3.886665    1.094234   -1.188100
      3          6    20001002        4.120107    0.990407    0.141124
      4          8    20001024        3.777611    1.832557    0.924212
      5          6    90000001        4.731324   -0.336359    0.626398
      6          6    90000002        5.353552   -0.138014    2.012520
      7          6    90000002        3.648077   -1.448959    0.643719
      8          6    90000002        2.409321   -1.271506    1.540173
      9          6    90000002        1.247544   -0.417974    0.993920
     10          6    20001004        0.698554   -0.900937   -0.328061
     11          6    20001004       -0.375218   -1.647015   -0.530891
     12          6    90000002       -1.317818   -2.201687    0.510068
     13          6    90000002       -2.645856   -1.433544    0.635914
     14          6    90000002       -2.962749   -0.590784   -0.606764
     15          6    90000002       -4.352252    0.092821   -0.688085
     16          6    90000002       -4.389969    0.916009   -1.985926
     17          7    20001014       -5.376004   -0.941955   -0.740049
     18          6    20001002       -6.704230   -0.635221   -0.670869
     19          6    20001001       -7.612309   -1.801643   -0.355181
     20          8    20001024       -7.126509    0.473824   -0.846486
     21          6    20001002       -4.567810    0.922955    0.597659
     22          8    20001024       -4.972994    0.395720    1.598548
     23          7    20001014       -4.188132    2.218793    0.572613
     24          6    20001001       -4.408882    3.066236    1.726438
     25          7    20001014        5.741496   -0.815131   -0.328463
     26          6    20001002        6.862031   -0.112444   -0.660583
     27          6    20001001        7.935761   -0.911894   -1.369175
     28          8    20001024        6.987188    1.055287   -0.422090
     29          1    20001035        4.228183    3.116924   -1.670050
     30          1    20001035        2.577217    2.708093   -1.230911
     31          1    20001035        3.212874    2.207793   -2.793324
     32          1    20001029        4.401960    0.484339   -1.778680
     33          1    20001034        4.626298    0.234127    2.717889
     34          1    20001034        5.743847   -1.085418    2.372149
     35          1    20001034        6.159895    0.579184    1.963904
     36          1    20001034        4.158494   -2.349512    0.977932
     37          1    20001034        3.333567   -1.639047   -0.377668
     38          1    20001034        2.020901   -2.268164    1.728376
     39          1    20001034        2.704283   -0.875873    2.506530
     40          1    20001034        1.560476    0.613041    0.891719
     41          1    20001034        0.467046   -0.420496    1.746683
     42          1    20001033        1.255246   -0.589604   -1.197129
     43          1    20001033       -0.619542   -1.891947   -1.552691
     44          1    20001034       -0.839608   -2.213649    1.481993
     45          1    20001034       -1.531435   -3.241248    0.264560
     46          1    20001034       -3.431893   -2.160477    0.820538
     47          1    20001034       -2.611863   -0.802289    1.514090
     48          1    20001034       -2.870023   -1.210169   -1.496314
     49          1    20001034       -2.217500    0.191099   -0.694019
     50          1    20001034       -4.333900    0.237284   -2.828997
     51          1    20001034       -3.539050    1.586125   -2.051206
     52          1    20001034       -5.303994    1.484352   -2.071275
     53          1    20001029       -5.126950   -1.807267   -0.318243
     54          1    20001034       -8.614393   -1.567490   -0.680854
     55          1    20001034       -7.621678   -1.951544    0.720257
     56          1    20001034       -7.277052   -2.719222   -0.826383
     57          1    20001029       -4.092589    2.666434   -0.308182
     58          1    20001035       -3.930049    4.020595    1.550836
     59          1    20001035       -3.973519    2.609580    2.603109
     60          1    20001035       -5.466067    3.226123    1.912314
     61          1    20001029        5.787774   -1.802929   -0.445348
     62          1    20001034        8.570807   -0.232884   -1.919297
     63          1    20001034        7.519127   -1.650877   -2.044357
     64          1    20001034        8.540231   -1.429095   -0.630988
 ---------------------------------------------------------------------

 SCF Done:  E(RHF) =  -1295.61531714     A.U. after   14 cycles

 The electronic state is 1-A.
 Alpha  occ. eigenvalues --  -20.53722 -20.51971 -20.51954 -20.51485 -15.59683
 Alpha  occ. eigenvalues --  -15.57776 -15.57659 -15.57397 -11.36039 -11.34159
 Alpha  occ. eigenvalues --  -11.33979 -11.33553 -11.29112 -11.28339 -11.25053
 Alpha  occ. eigenvalues --  -11.24883 -11.24416 -11.24079 -11.23077 -11.22773
 Alpha  occ. eigenvalues --  -11.22480 -11.22465 -11.22337 -11.22250 -11.22049
 Alpha  occ. eigenvalues --  -11.21731 -11.21629 -11.20931  -1.40662  -1.39264
 Alpha  occ. eigenvalues --   -1.38827  -1.37990  -1.25514  -1.23415  -1.22492
 Alpha  occ. eigenvalues --   -1.22202  -1.10915  -1.09289  -1.07085  -1.04244
 Alpha  occ. eigenvalues --   -1.01192  -0.99309  -0.98683  -0.95650  -0.95078
 Alpha  occ. eigenvalues --   -0.94488  -0.92340  -0.87321  -0.85715  -0.82960
 Alpha  occ. eigenvalues --   -0.81285  -0.79381  -0.78727  -0.77298  -0.76754
 Alpha  occ. eigenvalues --   -0.71638  -0.71342  -0.71137  -0.69015  -0.67624
 Alpha  occ. eigenvalues --   -0.67199  -0.65961  -0.64546  -0.64015  -0.63490
 Alpha  occ. eigenvalues --   -0.62760  -0.62521  -0.61565  -0.61343  -0.61193
 Alpha  occ. eigenvalues --   -0.60831  -0.59877  -0.59444  -0.58730  -0.58502
 Alpha  occ. eigenvalues --   -0.58278  -0.57752  -0.56580  -0.56446  -0.56219
 Alpha  occ. eigenvalues --   -0.55627  -0.54954  -0.54693  -0.54668  -0.53686
 Alpha  occ. eigenvalues --   -0.53273  -0.52920  -0.52609  -0.52253  -0.51491
 Alpha  occ. eigenvalues --   -0.51119  -0.50495  -0.49686  -0.49245  -0.48589
 Alpha  occ. eigenvalues --   -0.47406  -0.46830  -0.46461  -0.44619  -0.42951
 Alpha  occ. eigenvalues --   -0.42034  -0.41356  -0.40956  -0.39385  -0.38732
 Alpha  occ. eigenvalues --   -0.38446  -0.38154  -0.34579
 Alpha virt. eigenvalues --    0.17542   0.18733   0.19721   0.19917   0.20175
 Alpha virt. eigenvalues --    0.21311   0.21840   0.23090   0.23244   0.23525
 Alpha virt. eigenvalues --    0.25055   0.25422   0.26437   0.27217   0.27691

 Mulliken atomic charges:
              1
     1  C   -0.279374
     2  N   -0.783369
     3  C    0.822017
     4  O   -0.628727
     5  C    0.102242
     6  C   -0.472767
     7  C   -0.334555
     8  C   -0.311522
     9  C   -0.372168
    10  C   -0.182206
    11  C   -0.183528
    12  C   -0.350474
    13  C   -0.314741
    14  C   -0.333835
    15  C    0.093404
    16  C   -0.509674
    17  N   -0.787667
    18  C    0.767546
    19  C   -0.595504
    20  O   -0.614142
    21  C    0.820263
    22  O   -0.640954
    23  N   -0.805686
    24  C   -0.275287
    25  N   -0.843116
    26  C    0.744514
    27  C   -0.588703
    28  O   -0.591899
    29  H    0.187387
    30  H    0.196630
    31  H    0.162620
    32  H    0.391680
    33  H    0.198686
    34  H    0.144502
    35  H    0.212542
    36  H    0.161841
    37  H    0.182328
    38  H    0.165447
    39  H    0.179699
    40  H    0.211861
    41  H    0.172739
    42  H    0.179892
    43  H    0.173678
    44  H    0.178852
    45  H    0.165498
    46  H    0.153225
    47  H    0.196836
    48  H    0.172676
    49  H    0.193894
    50  H    0.182457
    51  H    0.149824
    52  H    0.225837
    53  H    0.388696
    54  H    0.210917
    55  H    0.208974
    56  H    0.175811
    57  H    0.395882
    58  H    0.166325
    59  H    0.197796
    60  H    0.184482
    61  H    0.382822
    62  H    0.218705
    63  H    0.177328
    64  H    0.201542
 Sum of Mulliken atomic charges =   0.00000

 Dipole moment (field-independent basis, Debye):
    X=              3.6433    Y=             -5.8218    Z=             -3.8413  Tot=              7.8691
 Quadrupole moment (field-independent basis, Debye-Ang):
   XX=           -193.9790   YY=           -161.6673   ZZ=           -170.3858
   XY=            -20.0728   XZ=             -8.6095   YZ=             -2.9259

 Normal termination of Gaussian 09 at Thu Dec  5 19:05:37 2019.
