 Gaussian 09, Revision A.02,
 Gaussian 09:  EM64L-G09RevA.02 11-Jun-2009

 ---------------------------------
 #SP HF/6-31G* Geom=(ModRedundant)
 ---------------------------------

 ------------
 paramfit run
 ------------
 Symbolic Z-matrix:
 Charge =  0 Multiplicity = 1

                         Standard orientation:
 ---------------------------------------------------------------------
 Center     Atomic      Atomic             Coordinates (Angstroms)
 Number     Number       Type             X           Y           Z
 ---------------------------------------------------------------------
      1          6    20001001        3.944601    2.430907   -1.808612
      2          7    20001014        4.225106    1.141308   -1.212377
      3          6    20001002        4.204354    1.001137    0.133740
      4          8    20001024        3.746602    1.837142    0.862646
      5          6    90000001        4.676385   -0.355391    0.687276
      6          6    90000002        5.035582   -0.207796    2.169516
      7          6    90000002        3.577309   -1.431434    0.473349
      8          6    90000002        2.199136   -1.232214    1.129541
      9          6    90000002        1.184116   -0.328908    0.401249
     10          6    20001004        0.876760   -0.764718   -1.012214
     11          6    20001004       -0.161573   -1.470096   -1.430623
     12          6    90000002       -1.296748   -2.015399   -0.597693
     13          6    90000002       -2.602429   -1.206369   -0.698864
     14          6    90000002       -3.318230   -1.065699    0.651230
     15          6    90000002       -4.550261   -0.127159    0.727953
     16          6    90000002       -5.111900   -0.213323    2.156444
     17          7    20001014       -4.112392    1.235979    0.460269
     18          6    20001002       -5.006558    2.257573    0.319307
     19          6    20001001       -4.449765    3.508316   -0.321340
     20          8    20001024       -6.149417    2.176456    0.674885
     21          6    20001002       -5.551735   -0.539291   -0.374737
     22          8    20001024       -5.414283   -0.137830   -1.498954
     23          7    20001014       -6.506489   -1.435677   -0.044710
     24          6    20001001       -7.507588   -1.826335   -1.015992
     25          7    20001014        5.832258   -0.846826   -0.076845
     26          6    20001002        7.014699   -0.174828   -0.176469
     27          6    20001001        8.178019   -0.994112   -0.695680
     28          8    20001024        7.126818    0.982677    0.112927
     29          1    20001035        4.708170    3.161429   -1.567263
     30          1    20001035        2.993309    2.798406   -1.452648
     31          1    20001035        3.893649    2.311024   -2.883501
     32          1    20001029        4.823463    0.527473   -1.713836
     33          1    20001034        4.200888    0.173053    2.738000
     34          1    20001034        5.324876   -1.175198    2.569115
     35          1    20001034        5.857162    0.483047    2.290630
     36          1    20001034        3.990649   -2.355473    0.871495
     37          1    20001034        3.452787   -1.588884   -0.593415
     38          1    20001034        1.754056   -2.219217    1.215257
     39          1    20001034        2.320586   -0.867543    2.144252
     40          1    20001034        1.540057    0.693084    0.386983
     41          1    20001034        0.277565   -0.321677    0.996184
     42          1    20001033        1.593980   -0.453424   -1.754376
     43          1    20001033       -0.218658   -1.684675   -2.486302
     44          1    20001034       -1.008055   -2.064222    0.445255
     45          1    20001034       -1.490767   -3.041739   -0.906846
     46          1    20001034       -2.355902   -0.230975   -1.108993
     47          1    20001034       -3.258618   -1.675424   -1.420136
     48          1    20001034       -2.612090   -0.711221    1.399058
     49          1    20001034       -3.645019   -2.047315    0.973706
     50          1    20001034       -4.377143    0.190748    2.843060
     51          1    20001034       -5.294813   -1.243087    2.445421
     52          1    20001034       -6.021881    0.358047    2.262323
     53          1    20001029       -3.296727    1.317184   -0.102589
     54          1    20001034       -5.075395    4.347978   -0.059394
     55          1    20001034       -4.469103    3.382592   -1.399739
     56          1    20001034       -3.426947    3.702247   -0.017016
     57          1    20001029       -6.734260   -1.552161    0.914384
     58          1    20001035       -8.096954   -2.632617   -0.599484
     59          1    20001035       -7.025040   -2.172260   -1.918273
     60          1    20001035       -8.163321   -1.000621   -1.272824
     61          1    20001029        5.871078   -1.832867   -0.210125
     62          1    20001034        8.923472   -0.324914   -1.099966
     63          1    20001034        7.873094   -1.704090   -1.456273
     64          1    20001034        8.619657   -1.546941    0.127204
 ---------------------------------------------------------------------

 SCF Done:  E(RHF) =  -1295.61849881     A.U. after   14 cycles

 The electronic state is 1-A.
 Alpha  occ. eigenvalues --  -20.53707 -20.51962 -20.51882 -20.51649 -15.59675
 Alpha  occ. eigenvalues --  -15.58013 -15.57615 -15.57353 -11.36024 -11.34077
 Alpha  occ. eigenvalues --  -11.33967 -11.33731 -11.29121 -11.28539 -11.25174
 Alpha  occ. eigenvalues --  -11.24964 -11.24394 -11.24105 -11.23563 -11.22851
 Alpha  occ. eigenvalues --  -11.22421 -11.22282 -11.22251 -11.22159 -11.21994
 Alpha  occ. eigenvalues --  -11.21834 -11.21749 -11.20959  -1.40648  -1.39314
 Alpha  occ. eigenvalues --   -1.38817  -1.38042  -1.25505  -1.23421  -1.22714
 Alpha  occ. eigenvalues --   -1.22162  -1.10767  -1.09266  -1.07277  -1.04252
 Alpha  occ. eigenvalues --   -1.01311  -0.99399  -0.98584  -0.95597  -0.95319
 Alpha  occ. eigenvalues --   -0.94698  -0.92030  -0.87290  -0.85624  -0.82565
 Alpha  occ. eigenvalues --   -0.81561  -0.79423  -0.79026  -0.77265  -0.76871
 Alpha  occ. eigenvalues --   -0.72034  -0.71372  -0.71243  -0.69021  -0.67612
 Alpha  occ. eigenvalues --   -0.66930  -0.65949  -0.64680  -0.64143  -0.63791
 Alpha  occ. eigenvalues --   -0.62728  -0.62480  -0.61609  -0.61270  -0.61182
 Alpha  occ. eigenvalues --   -0.60992  -0.59901  -0.59410  -0.58674  -0.58409
 Alpha  occ. eigenvalues --   -0.58231  -0.57758  -0.57048  -0.56555  -0.55776
 Alpha  occ. eigenvalues --   -0.55522  -0.54982  -0.54616  -0.54473  -0.53680
 Alpha  occ. eigenvalues --   -0.53451  -0.52885  -0.52559  -0.51912  -0.51572
 Alpha  occ. eigenvalues --   -0.51122  -0.50159  -0.49664  -0.49291  -0.48733
 Alpha  occ. eigenvalues --   -0.47872  -0.47066  -0.46902  -0.44630  -0.42940
 Alpha  occ. eigenvalues --   -0.42033  -0.41480  -0.40916  -0.39374  -0.38838
 Alpha  occ. eigenvalues --   -0.38409  -0.38309  -0.34513
 Alpha virt. eigenvalues --    0.17600   0.18751   0.19571   0.19921   0.20228
 Alpha virt. eigenvalues --    0.21434   0.21702   0.23162   0.23511   0.23771
 Alpha virt. eigenvalues --    0.25081   0.25187   0.26293   0.27037   0.27641

 Mulliken atomic charges:
              1
     1  C   -0.279548
     2  N   -0.783139
     3  C    0.821986
     4  O   -0.629373
     5  C    0.102346
     6  C   -0.472668
     7  C   -0.334552
     8  C   -0.310967
     9  C   -0.371308
    10  C   -0.183249
    11  C   -0.174738
    12  C   -0.356463
    13  C   -0.316966
    14  C   -0.330384
    15  C    0.090420
    16  C   -0.509984
    17  N   -0.787125
    18  C    0.766851
    19  C   -0.596120
    20  O   -0.615036
    21  C    0.818875
    22  O   -0.638772
    23  N   -0.806948
    24  C   -0.274980
    25  N   -0.843014
    26  C    0.744534
    27  C   -0.588754
    28  O   -0.591820
    29  H    0.187153
    30  H    0.196770
    31  H    0.163794
    32  H    0.391855
    33  H    0.197994
    34  H    0.144298
    35  H    0.212777
    36  H    0.161725
    37  H    0.183554
    38  H    0.165216
    39  H    0.178471
    40  H    0.212082
    41  H    0.166297
    42  H    0.181627
    43  H    0.175098
    44  H    0.168660
    45  H    0.170329
    46  H    0.166307
    47  H    0.193686
    48  H    0.179591
    49  H    0.176894
    50  H    0.185911
    51  H    0.147307
    52  H    0.227123
    53  H    0.392904
    54  H    0.210728
    55  H    0.208497
    56  H    0.180290
    57  H    0.395928
    58  H    0.164545
    59  H    0.196709
    60  H    0.186138
    61  H    0.382863
    62  H    0.218857
    63  H    0.177594
    64  H    0.201324
 Sum of Mulliken atomic charges =   0.00000

 Dipole moment (field-independent basis, Debye):
    X=              3.0981    Y=             -7.0942    Z=             -1.1620  Tot=              7.8279
 Quadrupole moment (field-independent basis, Debye-Ang):
   XX=           -176.1524   YY=           -168.6026   ZZ=           -170.8060
   XY=             -9.9892   XZ=            -21.8555   YZ=             -9.7129

 Normal termination of Gaussian 09 at Thu Dec  5 18:37:54 2019.
