 Gaussian 09, Revision A.02,
 Gaussian 09:  EM64L-G09RevA.02 11-Jun-2009

 ---------------------------------
 #SP HF/6-31G* Geom=(ModRedundant)
 ---------------------------------

 ------------
 paramfit run
 ------------
 Symbolic Z-matrix:
 Charge =  0 Multiplicity = 1

                         Standard orientation:
 ---------------------------------------------------------------------
 Center     Atomic      Atomic             Coordinates (Angstroms)
 Number     Number       Type             X           Y           Z
 ---------------------------------------------------------------------
      1          6    20001001        3.531207    2.534657   -1.474500
      2          7    20001014        3.940601    1.212029   -1.049886
      3          6    20001002        4.172414    0.965428    0.260671
      4          8    20001024        3.842830    1.725649    1.128533
      5          6    90000001        4.763264   -0.414163    0.602739
      6          6    90000002        5.388439   -0.372203    2.001037
      7          6    90000002        3.663129   -1.505808    0.504681
      8          6    90000002        2.427223   -1.404812    1.416807
      9          6    90000002        1.278640   -0.480987    0.965208
     10          6    20001004        0.722341   -0.813814   -0.399357
     11          6    20001004       -0.362713   -1.518000   -0.677810
     12          6    90000002       -1.313696   -2.164687    0.300545
     13          6    90000002       -2.629832   -1.393932    0.508603
     14          6    90000002       -3.059409   -0.608075   -0.737513
     15          6    90000002       -4.454499    0.068865   -0.726454
     16          6    90000002       -4.610722    0.833176   -2.051171
     17          7    20001014       -5.473033   -0.968927   -0.642146
     18          6    20001002       -6.791745   -0.661652   -0.469994
     19          6    20001001       -7.662013   -1.814335   -0.024168
     20          8    20001024       -7.234039    0.437724   -0.656782
     21          6    20001002       -4.560915    0.955254    0.535178
     22          8    20001024       -4.873625    0.472584    1.590248
     23          7    20001014       -4.192185    2.249318    0.419350
     24          6    20001001       -4.315459    3.147095    1.549395
     25          7    20001014        5.766005   -0.805153   -0.398794
     26          6    20001002        6.897159   -0.088555   -0.656960
     27          6    20001001        7.958545   -0.825275   -1.447417
     28          8    20001024        7.040158    1.045574   -0.297178
     29          1    20001035        4.313017    3.268762   -1.316980
     30          1    20001035        2.655988    2.841168   -0.920635
     31          1    20001035        3.283935    2.498373   -2.528014
     32          1    20001029        4.446514    0.659870   -1.702157
     33          1    20001034        4.666954   -0.065301    2.742794
     34          1    20001034        5.764196   -1.358004    2.258407
     35          1    20001034        6.205657    0.333783    2.026830
     36          1    20001034        4.159710   -2.444179    0.741512
     37          1    20001034        3.345759   -1.582603   -0.530528
     38          1    20001034        2.023603   -2.409714    1.499766
     39          1    20001034        2.728191   -1.117550    2.418941
     40          1    20001034        1.607304    0.550179    0.971507
     41          1    20001034        0.498188   -0.550802    1.714777
     42          1    20001033        1.283738   -0.421300   -1.231750
     43          1    20001033       -0.610744   -1.650353   -1.719311
     44          1    20001034       -0.835735   -2.286085    1.265056
     45          1    20001034       -1.543184   -3.169288   -0.052591
     46          1    20001034       -3.392516   -2.113217    0.793766
     47          1    20001034       -2.522358   -0.724013    1.351508
     48          1    20001034       -3.041722   -1.266431   -1.603417
     49          1    20001034       -2.329110    0.170386   -0.924628
     50          1    20001034       -4.625133    0.117555   -2.864965
     51          1    20001034       -3.772604    1.501142   -2.220760
     52          1    20001034       -5.531887    1.395593   -2.080859
     53          1    20001029       -5.183028   -1.814105   -0.205933
     54          1    20001034       -8.690133   -1.596662   -0.270435
     55          1    20001034       -7.576015   -1.916051    1.053506
     56          1    20001034       -7.364306   -2.751485   -0.481883
     57          1    20001029       -4.176914    2.657318   -0.485422
     58          1    20001035       -3.859272    4.093464    1.290164
     59          1    20001035       -3.802197    2.730804    2.403731
     60          1    20001035       -5.353105    3.313343    1.820331
     61          1    20001029        5.797173   -1.775766   -0.618992
     62          1    20001034        8.603907   -0.101906   -1.924091
     63          1    20001034        7.530665   -1.482718   -2.195908
     64          1    20001034        8.555027   -1.426387   -0.768686
 ---------------------------------------------------------------------

 SCF Done:  E(RHF) =  -1295.61780051     A.U. after   14 cycles

 The electronic state is 1-A.
 Alpha  occ. eigenvalues --  -20.53707 -20.51979 -20.51944 -20.51510 -15.59667
 Alpha  occ. eigenvalues --  -15.57800 -15.57634 -15.57431 -11.36024 -11.34185
 Alpha  occ. eigenvalues --  -11.33953 -11.33584 -11.29093 -11.28404 -11.25025
 Alpha  occ. eigenvalues --  -11.24892 -11.24404 -11.24061 -11.23163 -11.22751
 Alpha  occ. eigenvalues --  -11.22512 -11.22479 -11.22316 -11.22294 -11.22059
 Alpha  occ. eigenvalues --  -11.21694 -11.21680 -11.20912  -1.40646  -1.39290
 Alpha  occ. eigenvalues --   -1.38801  -1.38015  -1.25496  -1.23452  -1.22515
 Alpha  occ. eigenvalues --   -1.22178  -1.10880  -1.09284  -1.07115  -1.04242
 Alpha  occ. eigenvalues --   -1.01204  -0.99312  -0.98699  -0.95624  -0.95084
 Alpha  occ. eigenvalues --   -0.94505  -0.92313  -0.87309  -0.85721  -0.82951
 Alpha  occ. eigenvalues --   -0.81301  -0.79412  -0.78727  -0.77274  -0.76781
 Alpha  occ. eigenvalues --   -0.71692  -0.71328  -0.71114  -0.68999  -0.67693
 Alpha  occ. eigenvalues --   -0.67104  -0.65937  -0.64541  -0.63991  -0.63534
 Alpha  occ. eigenvalues --   -0.62710  -0.62492  -0.61633  -0.61360  -0.61198
 Alpha  occ. eigenvalues --   -0.60860  -0.59895  -0.59419  -0.58727  -0.58487
 Alpha  occ. eigenvalues --   -0.58271  -0.57788  -0.56579  -0.56415  -0.56242
 Alpha  occ. eigenvalues --   -0.55600  -0.54928  -0.54698  -0.54657  -0.53735
 Alpha  occ. eigenvalues --   -0.53221  -0.52898  -0.52557  -0.52231  -0.51503
 Alpha  occ. eigenvalues --   -0.51099  -0.50458  -0.49703  -0.49240  -0.48559
 Alpha  occ. eigenvalues --   -0.47658  -0.46905  -0.46440  -0.44630  -0.42933
 Alpha  occ. eigenvalues --   -0.42013  -0.41396  -0.40986  -0.39363  -0.38754
 Alpha  occ. eigenvalues --   -0.38420  -0.38185  -0.34567
 Alpha virt. eigenvalues --    0.17542   0.18748   0.19688   0.19934   0.20198
 Alpha virt. eigenvalues --    0.21473   0.21755   0.23111   0.23228   0.23624
 Alpha virt. eigenvalues --    0.25116   0.25472   0.26474   0.27281   0.27768

 Mulliken atomic charges:
              1
     1  C   -0.279454
     2  N   -0.783386
     3  C    0.821982
     4  O   -0.628539
     5  C    0.102259
     6  C   -0.472779
     7  C   -0.334487
     8  C   -0.311687
     9  C   -0.372492
    10  C   -0.182523
    11  C   -0.182184
    12  C   -0.349682
    13  C   -0.311081
    14  C   -0.335184
    15  C    0.093019
    16  C   -0.509708
    17  N   -0.787659
    18  C    0.767479
    19  C   -0.595542
    20  O   -0.614073
    21  C    0.820442
    22  O   -0.640571
    23  N   -0.805651
    24  C   -0.275365
    25  N   -0.843112
    26  C    0.744523
    27  C   -0.588695
    28  O   -0.591872
    29  H    0.187309
    30  H    0.197074
    31  H    0.162409
    32  H    0.391590
    33  H    0.198792
    34  H    0.144417
    35  H    0.212529
    36  H    0.161739
    37  H    0.182228
    38  H    0.165184
    39  H    0.179833
    40  H    0.212307
    41  H    0.173602
    42  H    0.179969
    43  H    0.173281
    44  H    0.178164
    45  H    0.163293
    46  H    0.152434
    47  H    0.196505
    48  H    0.172140
    49  H    0.193124
    50  H    0.182654
    51  H    0.149420
    52  H    0.226092
    53  H    0.388957
    54  H    0.210986
    55  H    0.209102
    56  H    0.175937
    57  H    0.395668
    58  H    0.166047
    59  H    0.198466
    60  H    0.184514
    61  H    0.382774
    62  H    0.218677
    63  H    0.177287
    64  H    0.201515
 Sum of Mulliken atomic charges =   0.00000

 Dipole moment (field-independent basis, Debye):
    X=              3.4233    Y=             -5.5717    Z=             -4.5728  Tot=              7.9795
 Quadrupole moment (field-independent basis, Debye-Ang):
   XX=           -194.1423   YY=           -160.2685   ZZ=           -171.2365
   XY=            -18.6035   XZ=            -11.2721   YZ=             -5.0823

 Normal termination of Gaussian 09 at Thu Dec  5 19:10:52 2019.
