 Gaussian 09, Revision A.02,
 Gaussian 09:  EM64L-G09RevA.02 11-Jun-2009

 ---------------------------------
 #SP HF/6-31G* Geom=(ModRedundant)
 ---------------------------------

 ------------
 paramfit run
 ------------
 Symbolic Z-matrix:
 Charge =  0 Multiplicity = 1

                         Standard orientation:
 ---------------------------------------------------------------------
 Center     Atomic      Atomic             Coordinates (Angstroms)
 Number     Number       Type             X           Y           Z
 ---------------------------------------------------------------------
      1          6    20001001       -3.767732    2.878291    0.607202
      2          7    20001014       -4.116777    1.472866    0.593355
      3          6    20001002       -4.321214    0.839702   -0.585380
      4          8    20001024       -4.011977    1.322525   -1.639420
      5          6    90000001       -4.850272   -0.603485   -0.503548
      6          6    90000002       -5.458447   -1.004242   -1.851643
      7          6    90000002       -3.707487   -1.568656   -0.086307
      8          6    90000002       -2.465056   -1.688860   -0.987168
      9          6    90000002       -1.361441   -0.624088   -0.829267
     10          6    20001004       -0.809664   -0.513842    0.572755
     11          6    20001004        0.299759   -1.056553    1.047521
     12          6    90000002        1.289178   -1.922119    0.304824
     13          6    90000002        2.575052   -1.191395   -0.121950
     14          6    90000002        3.355899   -0.621556    1.069886
     15          6    90000002        4.757937   -0.016624    0.799718
     16          6    90000002        5.291664    0.532987    2.132579
     17          7    20001014        5.636984   -1.076696    0.325320
     18          6    20001002        6.895849   -0.809220   -0.129404
     19          6    20001001        7.534818   -1.921801   -0.928583
     20          8    20001024        7.459134    0.227975    0.085254
     21          6    20001002        4.629323    1.042378   -0.318628
     22          8    20001024        4.637299    0.708688   -1.472975
     23          7    20001014        4.407305    2.320431    0.057232
     24          6    20001001        4.327689    3.370228   -0.937649
     25          7    20001014       -5.848976   -0.723477    0.568656
     26          6    20001002       -7.011930   -0.012108    0.602741
     27          6    20001001       -8.052250   -0.527004    1.575745
     28          8    20001024       -7.196823    0.957468   -0.076875
     29          1    20001035       -4.576995    3.498431    0.239141
     30          1    20001035       -2.898761    3.044647   -0.012426
     31          1    20001035       -3.532866    3.166116    1.624232
     32          1    20001029       -4.607947    1.117169    1.379814
     33          1    20001034       -4.740646   -0.899753   -2.650878
     34          1    20001034       -5.789925   -2.037311   -1.805521
     35          1    20001034       -6.303636   -0.373480   -2.085568
     36          1    20001034       -4.161896   -2.555602   -0.034641
     37          1    20001034       -3.400684   -1.321879    0.925253
     38          1    20001034       -2.019361   -2.654895   -0.768651
     39          1    20001034       -2.764567   -1.724307   -2.029478
     40          1    20001034       -1.732174    0.343831   -1.140801
     41          1    20001034       -0.569115   -0.878841   -1.524361
     42          1    20001033       -1.397500    0.082808    1.251408
     43          1    20001033        0.539494   -0.863922    2.081533
     44          1    20001034        0.829176   -2.344029   -0.580533
     45          1    20001034        1.555233   -2.766329    0.939740
     46          1    20001034        3.184459   -1.894898   -0.682379
     47          1    20001034        2.322857   -0.398752   -0.814008
     48          1    20001034        3.493574   -1.400358    1.816913
     49          1    20001034        2.759013    0.153528    1.536065
     50          1    20001034        5.443083   -0.296088    2.813965
     51          1    20001034        4.577195    1.206605    2.594263
     52          1    20001034        6.235851    1.040906    2.005033
     53          1    20001029        5.181686   -1.832686   -0.132821
     54          1    20001034        8.606308   -1.791743   -0.921189
     55          1    20001034        7.183183   -1.857194   -1.953915
     56          1    20001034        7.280253   -2.901850   -0.539891
     57          1    20001029        4.644511    2.588908    0.982956
     58          1    20001035        4.027085    4.287539   -0.448673
     59          1    20001035        3.590917    3.110767   -1.683620
     60          1    20001035        5.279326    3.526336   -1.435418
     61          1    20001029       -5.843007   -1.585847    1.066481
     62          1    20001034       -8.732979    0.276463    1.816620
     63          1    20001034       -7.607412   -0.914379    2.485475
     64          1    20001034       -8.614618   -1.327215    1.105419
 ---------------------------------------------------------------------

 SCF Done:  E(RHF) =  -1295.62207414     A.U. after   14 cycles

 The electronic state is 1-A.
 Alpha  occ. eigenvalues --  -20.53655 -20.52036 -20.51856 -20.51571 -15.59614
 Alpha  occ. eigenvalues --  -15.57876 -15.57547 -15.57510 -11.35974 -11.34244
 Alpha  occ. eigenvalues --  -11.33869 -11.33658 -11.29031 -11.28551 -11.24953
 Alpha  occ. eigenvalues --  -11.24915 -11.24365 -11.24005 -11.23380 -11.22695
 Alpha  occ. eigenvalues --  -11.22549 -11.22507 -11.22342 -11.22226 -11.22023
 Alpha  occ. eigenvalues --  -11.21793 -11.21593 -11.20855  -1.40592  -1.39351
 Alpha  occ. eigenvalues --   -1.38714  -1.38073  -1.25438  -1.23535  -1.22589
 Alpha  occ. eigenvalues --   -1.22092  -1.10763  -1.09258  -1.07183  -1.04221
 Alpha  occ. eigenvalues --   -1.01229  -0.99320  -0.98730  -0.95532  -0.95121
 Alpha  occ. eigenvalues --   -0.94564  -0.92191  -0.87262  -0.85699  -0.82839
 Alpha  occ. eigenvalues --   -0.81340  -0.79478  -0.78763  -0.77191  -0.76856
 Alpha  occ. eigenvalues --   -0.71888  -0.71290  -0.71098  -0.68948  -0.67970
 Alpha  occ. eigenvalues --   -0.66718  -0.65857  -0.64526  -0.63949  -0.63698
 Alpha  occ. eigenvalues --   -0.62594  -0.62340  -0.61764  -0.61407  -0.61151
 Alpha  occ. eigenvalues --   -0.60918  -0.59900  -0.59337  -0.58711  -0.58429
 Alpha  occ. eigenvalues --   -0.58257  -0.57816  -0.56569  -0.56396  -0.56213
 Alpha  occ. eigenvalues --   -0.55493  -0.54849  -0.54737  -0.54567  -0.53943
 Alpha  occ. eigenvalues --   -0.53086  -0.52826  -0.52466  -0.52150  -0.51539
 Alpha  occ. eigenvalues --   -0.51034  -0.50309  -0.49760  -0.49259  -0.48534
 Alpha  occ. eigenvalues --   -0.48341  -0.46926  -0.46391  -0.44534  -0.42874
 Alpha  occ. eigenvalues --   -0.41947  -0.41487  -0.41050  -0.39294  -0.38819
 Alpha  occ. eigenvalues --   -0.38330  -0.38261  -0.34512
 Alpha virt. eigenvalues --    0.17335   0.18795   0.19668   0.19986   0.20231
 Alpha virt. eigenvalues --    0.21611   0.21972   0.23166   0.23249   0.23931
 Alpha virt. eigenvalues --    0.25297   0.25646   0.26547   0.27139   0.27645

 Mulliken atomic charges:
              1
     1  C   -0.279649
     2  N   -0.783404
     3  C    0.821890
     4  O   -0.628125
     5  C    0.102322
     6  C   -0.472793
     7  C   -0.334304
     8  C   -0.311917
     9  C   -0.373778
    10  C   -0.179151
    11  C   -0.177265
    12  C   -0.353182
    13  C   -0.310340
    14  C   -0.329335
    15  C    0.091095
    16  C   -0.509596
    17  N   -0.787624
    18  C    0.767310
    19  C   -0.595688
    20  O   -0.613870
    21  C    0.820617
    22  O   -0.639361
    23  N   -0.805934
    24  C   -0.275602
    25  N   -0.843078
    26  C    0.744558
    27  C   -0.588676
    28  O   -0.591766
    29  H    0.187029
    30  H    0.198261
    31  H    0.162164
    32  H    0.391331
    33  H    0.198974
    34  H    0.144114
    35  H    0.212516
    36  H    0.161387
    37  H    0.182112
    38  H    0.164476
    39  H    0.179892
    40  H    0.213455
    41  H    0.175190
    42  H    0.180403
    43  H    0.169739
    44  H    0.176833
    45  H    0.160146
    46  H    0.151022
    47  H    0.199395
    48  H    0.172979
    49  H    0.185385
    50  H    0.183430
    51  H    0.148384
    52  H    0.226614
    53  H    0.389749
    54  H    0.211155
    55  H    0.209500
    56  H    0.176231
    57  H    0.395269
    58  H    0.164897
    59  H    0.199870
    60  H    0.184930
    61  H    0.382622
    62  H    0.218619
    63  H    0.177184
    64  H    0.201387
 Sum of Mulliken atomic charges =   0.00000

 Dipole moment (field-independent basis, Debye):
    X=             -2.8115    Y=             -4.5312    Z=              6.3630  Tot=              8.3021
 Quadrupole moment (field-independent basis, Debye-Ang):
   XX=           -194.4044   YY=           -156.0155   ZZ=           -173.3219
   XY=             14.2782   XZ=            -17.7197   YZ=              9.7601

 Normal termination of Gaussian 09 at Thu Dec  5 18:21:39 2019.
