 Gaussian 09, Revision A.02,
 Gaussian 09:  EM64L-G09RevA.02 11-Jun-2009

 ---------------------------------
 #SP HF/6-31G* Geom=(ModRedundant)
 ---------------------------------

 ------------
 paramfit run
 ------------
 Symbolic Z-matrix:
 Charge =  0 Multiplicity = 1

                         Standard orientation:
 ---------------------------------------------------------------------
 Center     Atomic      Atomic             Coordinates (Angstroms)
 Number     Number       Type             X           Y           Z
 ---------------------------------------------------------------------
      1          6    20001001       -2.147682    2.827894   -0.083659
      2          7    20001014       -2.615850    1.482316    0.176117
      3          6    20001002       -3.116505    0.734789   -0.835149
      4          8    20001024       -2.991386    1.042317   -1.988195
      5          6    90000001       -3.743493   -0.614966   -0.442168
      6          6    90000002       -4.651912   -1.107535   -1.573536
      7          6    90000002       -2.629629   -1.647204   -0.117525
      8          6    90000002       -1.617419   -2.023694   -1.214486
      9          6    90000002       -0.414660   -1.083902   -1.430817
     10          6    20001004        0.424135   -0.864202   -0.193711
     11          6    20001004        1.555124   -1.469122    0.131392
     12          6    90000002        2.287316   -2.530568   -0.654089
     13          6    90000002        3.516269   -2.014415   -1.424040
     14          6    90000002        4.586930   -1.418737   -0.500044
     15          6    90000002        4.274126   -0.073143    0.204353
     16          6    90000002        5.469795    0.266879    1.108904
     17          7    20001014        4.125991    0.959260   -0.812373
     18          6    20001002        3.705388    2.218242   -0.494388
     19          6    20001001        3.239150    3.049916   -1.667310
     20          8    20001024        3.703324    2.639952    0.628688
     21          6    20001002        2.929366   -0.211307    0.953523
     22          8    20001024        1.891168   -0.056413    0.368645
     23          7    20001014        2.973741   -0.608538    2.243569
     24          6    20001001        1.754053   -0.708973    3.018474
     25          7    20001014       -4.504083   -0.482155    0.808950
     26          6    20001002       -5.566386    0.358916    0.963175
     27          6    20001001       -6.423343    0.095103    2.183890
     28          8    20001024       -5.801347    1.250657    0.197844
     29          1    20001035       -2.957205    3.487373   -0.374708
     30          1    20001035       -1.415234    2.812606   -0.877391
     31          1    20001035       -1.681795    3.211378    0.815364
     32          1    20001029       -2.962486    1.287790    1.086220
     33          1    20001034       -4.109572   -1.188597   -2.503175
     34          1    20001034       -5.057306   -2.080805   -1.313461
     35          1    20001034       -5.467594   -0.416592   -1.729055
     36          1    20001034       -3.149502   -2.559968    0.164988
     37          1    20001034       -2.098466   -1.313255    0.768265
     38          1    20001034       -1.223968   -3.000182   -0.947495
     39          1    20001034       -2.129033   -2.154141   -2.162437
     40          1    20001034       -0.754264   -0.125970   -1.802839
     41          1    20001034        0.189898   -1.514564   -2.221307
     42          1    20001033        0.045827   -0.122661    0.491208
     43          1    20001033        2.020799   -1.177866    1.059874
     44          1    20001034        1.617551   -3.003347   -1.362158
     45          1    20001034        2.603218   -3.313883    0.033820
     46          1    20001034        3.919318   -2.844316   -1.997791
     47          1    20001034        3.199633   -1.276790   -2.149630
     48          1    20001034        5.505682   -1.267316   -1.062626
     49          1    20001034        4.813887   -2.139611    0.276603
     50          1    20001034        6.337866    0.443727    0.484598
     51          1    20001034        5.708790   -0.558628    1.771323
     52          1    20001034        5.287851    1.156719    1.692703
     53          1    20001029        3.832241    0.636377   -1.705776
     54          1    20001034        3.286582    4.094754   -1.400616
     55          1    20001034        2.206965    2.792586   -1.885252
     56          1    20001034        3.832663    2.869784   -2.557071
     57          1    20001029        3.822322   -0.491869    2.745176
     58          1    20001035        1.988876   -1.154701    3.976130
     59          1    20001035        1.044225   -1.337964    2.501620
     60          1    20001035        1.297878    0.262540    3.179166
     61          1    20001029       -4.471647   -1.270126    1.416894
     62          1    20001034       -6.964717    0.996436    2.431856
     63          1    20001034       -5.835429   -0.224614    3.036937
     64          1    20001034       -7.140257   -0.686439    1.953611
 ---------------------------------------------------------------------

 SCF Done:  E(RHF) =  -1295.10040875     A.U. after   19 cycles

 The electronic state is 1-A.
 Alpha  occ. eigenvalues --  -20.56813 -20.53006 -20.52234 -20.49817 -15.62392
 Alpha  occ. eigenvalues --  -15.58785 -15.57939 -15.55567 -11.36462 -11.35172
 Alpha  occ. eigenvalues --  -11.34563 -11.31853 -11.30682 -11.27077 -11.26871
 Alpha  occ. eigenvalues --  -11.24747 -11.23708 -11.23391 -11.23288 -11.23266
 Alpha  occ. eigenvalues --  -11.22999 -11.21999 -11.21841 -11.21042 -11.19020
 Alpha  occ. eigenvalues --  -11.18554 -11.16998 -11.11793  -1.55352  -1.39772
 Alpha  occ. eigenvalues --   -1.39136  -1.36704  -1.28539  -1.25077  -1.23677
 Alpha  occ. eigenvalues --   -1.20169  -1.10806  -1.08837  -1.06654  -1.03023
 Alpha  occ. eigenvalues --   -1.00628  -0.99640  -0.98195  -0.97764  -0.94293
 Alpha  occ. eigenvalues --   -0.93736  -0.91584  -0.90236  -0.87666  -0.84642
 Alpha  occ. eigenvalues --   -0.81786  -0.80490  -0.79655  -0.77634  -0.75597
 Alpha  occ. eigenvalues --   -0.75242  -0.73658  -0.69642  -0.69220  -0.68657
 Alpha  occ. eigenvalues --   -0.67530  -0.65698  -0.65306  -0.63940  -0.63763
 Alpha  occ. eigenvalues --   -0.62339  -0.61994  -0.61562  -0.61370  -0.61039
 Alpha  occ. eigenvalues --   -0.60476  -0.60090  -0.59130  -0.58928  -0.58299
 Alpha  occ. eigenvalues --   -0.57867  -0.57682  -0.57089  -0.56901  -0.56493
 Alpha  occ. eigenvalues --   -0.55985  -0.55842  -0.54407  -0.53877  -0.53546
 Alpha  occ. eigenvalues --   -0.52892  -0.52546  -0.50823  -0.50745  -0.50541
 Alpha  occ. eigenvalues --   -0.49704  -0.49190  -0.48894  -0.48503  -0.47611
 Alpha  occ. eigenvalues --   -0.46571  -0.45249  -0.44609  -0.42830  -0.42170
 Alpha  occ. eigenvalues --   -0.41560  -0.41054  -0.39957  -0.39776  -0.37448
 Alpha  occ. eigenvalues --   -0.36841  -0.36319  -0.15365
 Alpha virt. eigenvalues --    0.12899   0.19501   0.19560   0.20167   0.21471
 Alpha virt. eigenvalues --    0.21677   0.22226   0.23257   0.24198   0.25416
 Alpha virt. eigenvalues --    0.25929   0.26380   0.27066   0.27215   0.28084

 Mulliken atomic charges:
              1
     1  C   -0.274498
     2  N   -0.775773
     3  C    0.829891
     4  O   -0.634111
     5  C    0.100106
     6  C   -0.469937
     7  C   -0.323285
     8  C   -0.284112
     9  C   -0.330383
    10  C   -0.333439
    11  C    0.034930
    12  C   -0.360707
    13  C   -0.334551
    14  C   -0.335929
    15  C    0.112214
    16  C   -0.510823
    17  N   -0.785179
    18  C    0.763149
    19  C   -0.596903
    20  O   -0.609952
    21  C    0.713474
    22  O   -0.487713
    23  N   -0.773325
    24  C   -0.312472
    25  N   -0.842148
    26  C    0.745362
    27  C   -0.587761
    28  O   -0.594634
    29  H    0.178986
    30  H    0.195770
    31  H    0.159840
    32  H    0.387111
    33  H    0.200211
    34  H    0.138826
    35  H    0.204012
    36  H    0.144914
    37  H    0.177357
    38  H    0.138160
    39  H    0.144607
    40  H    0.181667
    41  H    0.123114
    42  H    0.145422
    43  H    0.077267
    44  H    0.194202
    45  H    0.163864
    46  H    0.181288
    47  H    0.165396
    48  H    0.187942
    49  H    0.179087
    50  H    0.194644
    51  H    0.149069
    52  H    0.231443
    53  H    0.393383
    54  H    0.213439
    55  H    0.216419
    56  H    0.179770
    57  H    0.417301
    58  H    0.182729
    59  H    0.249915
    60  H    0.193222
    61  H    0.379914
    62  H    0.214763
    63  H    0.174875
    64  H    0.198582
 Sum of Mulliken atomic charges =   0.00000

 Dipole moment (field-independent basis, Debye):
    X=              5.8824    Y=             -4.5106    Z=              5.5855  Tot=              9.2815
 Quadrupole moment (field-independent basis, Debye-Ang):
   XX=           -160.1810   YY=           -175.8337   ZZ=           -160.0663
   XY=              5.6535   XZ=            -23.4430   YZ=             -4.4129

 Normal termination of Gaussian 09 at Thu Dec  5 19:36:12 2019.
