 Gaussian 09, Revision A.02,
 Gaussian 09:  EM64L-G09RevA.02 11-Jun-2009

 ---------------------------------
 #SP HF/6-31G* Geom=(ModRedundant)
 ---------------------------------

 ------------
 paramfit run
 ------------
 Symbolic Z-matrix:
 Charge =  0 Multiplicity = 1

                         Standard orientation:
 ---------------------------------------------------------------------
 Center     Atomic      Atomic             Coordinates (Angstroms)
 Number     Number       Type             X           Y           Z
 ---------------------------------------------------------------------
      1          6    20001001       -3.275794    2.867687    0.170067
      2          7    20001014       -3.736891    1.506576    0.348986
      3          6    20001002       -3.989679    0.731943   -0.731824
      4          8    20001024       -3.640778    1.035321   -1.839062
      5          6    90000001       -4.633407   -0.638639   -0.455226
      6          6    90000002       -5.269613   -1.175684   -1.741564
      7          6    90000002       -3.572787   -1.623180    0.108129
      8          6    90000002       -2.342559   -1.967505   -0.750716
      9          6    90000002       -1.157029   -0.982264   -0.729409
     10          6    20001004       -0.600529   -0.719821    0.650341
     11          6    20001004        0.460771   -1.276709    1.210945
     12          6    90000002        1.378501   -2.314179    0.609963
     13          6    90000002        2.719776   -1.755448    0.101664
     14          6    90000002        3.553575   -1.110516    1.216902
     15          6    90000002        4.667570   -0.112027    0.808640
     16          6    90000002        5.301822    0.430088    2.099874
     17          7    20001014        5.673963   -0.829508    0.037973
     18          6    20001002        6.701885   -0.175020   -0.576908
     19          6    20001001        7.428856   -0.977825   -1.631337
     20          8    20001024        7.011076    0.952006   -0.306065
     21          6    20001002        4.046153    0.973836   -0.098810
     22          8    20001024        3.904481    0.772376   -1.274936
     23          7    20001014        3.584361    2.093918    0.497969
     24          6    20001001        3.036732    3.172494   -0.298887
     25          7    20001014       -5.640337   -0.526586    0.610121
     26          6    20001002       -6.742266    0.272684    0.528934
     27          6    20001001       -7.822319   -0.015631    1.550931
     28          8    20001024       -6.847310    1.148443   -0.282331
     29          1    20001035       -4.031852    3.492151   -0.291853
     30          1    20001035       -2.395204    2.875462   -0.455412
     31          1    20001035       -3.020222    3.276328    1.139628
     32          1    20001029       -4.256443    1.305417    1.171109
     33          1    20001034       -4.544382   -1.242245   -2.538146
     34          1    20001034       -5.683308   -2.162292   -1.555285
     35          1    20001034       -6.060851   -0.518984   -2.072644
     36          1    20001034       -4.105306   -2.553716    0.291826
     37          1    20001034       -3.248809   -1.261536    1.078969
     38          1    20001034       -1.976498   -2.925469   -0.393054
     39          1    20001034       -2.642195   -2.125514   -1.781554
     40          1    20001034       -1.448063   -0.041507   -1.178450
     41          1    20001034       -0.386628   -1.394588   -1.371519
     42          1    20001033       -1.139537    0.011321    1.230871
     43          1    20001033        0.713500   -0.960003    2.210738
     44          1    20001034        0.887502   -2.818688   -0.213358
     45          1    20001034        1.574618   -3.078974    1.360443
     46          1    20001034        3.263324   -2.573037   -0.363609
     47          1    20001034        2.532429   -1.036624   -0.685117
     48          1    20001034        4.035927   -1.889455    1.803524
     49          1    20001034        2.885334   -0.584899    1.888862
     50          1    20001034        5.796720   -0.386446    2.612643
     51          1    20001034        4.547671    0.826243    2.771959
     52          1    20001034        6.037258    1.193058    1.893118
     53          1    20001029        5.344926   -1.633548   -0.445726
     54          1    20001034        8.409168   -0.553144   -1.785275
     55          1    20001034        6.871327   -0.913059   -2.560903
     56          1    20001034        7.519450   -2.023505   -1.357972
     57          1    20001029        3.927880    2.324809    1.400186
     58          1    20001035        2.616467    3.914905    0.366789
     59          1    20001035        2.255544    2.791866   -0.940364
     60          1    20001035        3.794283    3.638578   -0.920688
     61          1    20001029       -5.704693   -1.307936    1.224041
     62          1    20001034       -8.436521    0.865314    1.667826
     63          1    20001034       -7.411665   -0.305109    2.511720
     64          1    20001034       -8.446525   -0.826848    1.190242
 ---------------------------------------------------------------------

 SCF Done:  E(RHF) =  -1295.61961715     A.U. after   14 cycles

 The electronic state is 1-A.
 Alpha  occ. eigenvalues --  -20.53606 -20.52007 -20.51779 -20.51573 -15.59559
 Alpha  occ. eigenvalues --  -15.57852 -15.57485 -15.57481 -11.35925 -11.34200
 Alpha  occ. eigenvalues --  -11.33795 -11.33654 -11.28964 -11.28503 -11.24900
 Alpha  occ. eigenvalues --  -11.24862 -11.24326 -11.23928 -11.23252 -11.22594
 Alpha  occ. eigenvalues --  -11.22451 -11.22421 -11.22099 -11.21968 -11.21907
 Alpha  occ. eigenvalues --  -11.21757 -11.21444 -11.20793  -1.40541  -1.39353
 Alpha  occ. eigenvalues --   -1.38638  -1.38083  -1.25380  -1.23489  -1.22566
 Alpha  occ. eigenvalues --   -1.22028  -1.10654  -1.09179  -1.07091  -1.04116
 Alpha  occ. eigenvalues --   -1.01147  -0.99252  -0.98666  -0.95473  -0.95049
 Alpha  occ. eigenvalues --   -0.94495  -0.92098  -0.87199  -0.85644  -0.82759
 Alpha  occ. eigenvalues --   -0.81241  -0.79405  -0.78686  -0.77126  -0.76819
 Alpha  occ. eigenvalues --   -0.71923  -0.71208  -0.70981  -0.68889  -0.68035
 Alpha  occ. eigenvalues --   -0.66385  -0.65784  -0.64532  -0.63970  -0.63833
 Alpha  occ. eigenvalues --   -0.62559  -0.62259  -0.61732  -0.61264  -0.60970
 Alpha  occ. eigenvalues --   -0.60862  -0.59862  -0.59216  -0.58518  -0.58335
 Alpha  occ. eigenvalues --   -0.58215  -0.57775  -0.56627  -0.56561  -0.56000
 Alpha  occ. eigenvalues --   -0.55317  -0.54763  -0.54660  -0.54520  -0.54168
 Alpha  occ. eigenvalues --   -0.53177  -0.52724  -0.52443  -0.51760  -0.51437
 Alpha  occ. eigenvalues --   -0.50970  -0.50292  -0.49724  -0.49124  -0.48341
 Alpha  occ. eigenvalues --   -0.48086  -0.46820  -0.46408  -0.44357  -0.42816
 Alpha  occ. eigenvalues --   -0.41881  -0.41430  -0.41003  -0.39230  -0.38822
 Alpha  occ. eigenvalues --   -0.38260  -0.38132  -0.34403
 Alpha virt. eigenvalues --    0.17339   0.18841   0.19564   0.20032   0.20268
 Alpha virt. eigenvalues --    0.21586   0.22147   0.23101   0.23393   0.23943
 Alpha virt. eigenvalues --    0.25306   0.25787   0.26597   0.26658   0.27743

 Mulliken atomic charges:
              1
     1  C   -0.279544
     2  N   -0.783364
     3  C    0.821901
     4  O   -0.627682
     5  C    0.102317
     6  C   -0.472798
     7  C   -0.334141
     8  C   -0.312285
     9  C   -0.373481
    10  C   -0.176537
    11  C   -0.178040
    12  C   -0.347970
    13  C   -0.335292
    14  C   -0.329912
    15  C    0.091422
    16  C   -0.509705
    17  N   -0.787972
    18  C    0.766969
    19  C   -0.595197
    20  O   -0.613810
    21  C    0.820507
    22  O   -0.637919
    23  N   -0.803841
    24  C   -0.275777
    25  N   -0.843072
    26  C    0.744564
    27  C   -0.588651
    28  O   -0.591756
    29  H    0.186991
    30  H    0.198595
    31  H    0.161545
    32  H    0.391148
    33  H    0.199185
    34  H    0.143900
    35  H    0.212389
    36  H    0.161069
    37  H    0.181894
    38  H    0.164169
    39  H    0.179657
    40  H    0.213982
    41  H    0.176492
    42  H    0.179679
    43  H    0.167852
    44  H    0.175939
    45  H    0.159460
    46  H    0.144876
    47  H    0.223836
    48  H    0.176813
    49  H    0.181189
    50  H    0.183692
    51  H    0.147624
    52  H    0.226451
    53  H    0.390799
    54  H    0.210943
    55  H    0.209719
    56  H    0.176406
    57  H    0.394973
    58  H    0.163399
    59  H    0.201968
    60  H    0.184987
    61  H    0.382532
    62  H    0.218520
    63  H    0.177086
    64  H    0.201310
 Sum of Mulliken atomic charges =   0.00000

 Dipole moment (field-independent basis, Debye):
    X=             -2.3610    Y=             -4.5586    Z=              6.9620  Tot=              8.6501
 Quadrupole moment (field-independent basis, Debye-Ang):
   XX=           -180.6805   YY=           -160.6092   ZZ=           -172.8209
   XY=              3.5478   XZ=            -20.2264   YZ=             11.6847

 Normal termination of Gaussian 09 at Thu Dec  5 18:33:18 2019.
