 Gaussian 09, Revision A.02,
 Gaussian 09:  EM64L-G09RevA.02 11-Jun-2009

 ---------------------------------
 #SP HF/6-31G* Geom=(ModRedundant)
 ---------------------------------

 ------------
 paramfit run
 ------------
 Symbolic Z-matrix:
 Charge =  0 Multiplicity = 1

                         Standard orientation:
 ---------------------------------------------------------------------
 Center     Atomic      Atomic             Coordinates (Angstroms)
 Number     Number       Type             X           Y           Z
 ---------------------------------------------------------------------
      1          6    20001001       -4.102344    2.829220    0.984480
      2          7    20001014       -4.349517    1.415439    0.791155
      3          6    20001002       -4.530138    0.926387   -0.457970
      4          8    20001024       -4.276479    1.562741   -1.443088
      5          6    90000001       -4.952294   -0.550377   -0.559650
      6          6    90000002       -5.555469   -0.817552   -1.942631
      7          6    90000002       -3.735301   -1.474304   -0.282360
      8          6    90000002       -2.504727   -1.385146   -1.202891
      9          6    90000002       -1.477828   -0.271116   -0.918195
     10          6    20001004       -0.908961   -0.302347    0.480981
     11          6    20001004        0.245443   -0.818400    0.870593
     12          6    90000002        1.280355   -1.505415    0.012268
     13          6    90000002        2.501979   -0.632784   -0.327903
     14          6    90000002        3.277319   -0.187160    0.919165
     15          6    90000002        4.804035    0.047426    0.782232
     16          6    90000002        5.322167    0.541632    2.142655
     17          7    20001014        5.440441   -1.220503    0.452271
     18          6    20001002        6.764889   -1.291115    0.129924
     19          6    20001001        7.188718   -2.574396   -0.547101
     20          8    20001024        7.540072   -0.405839    0.363415
     21          6    20001002        5.047727    1.029828   -0.385770
     22          8    20001024        5.087373    0.627818   -1.517470
     23          7    20001014        5.108063    2.346082   -0.089435
     24          6    20001001        5.384674    3.316115   -1.129014
     25          7    20001014       -5.919281   -0.881185    0.497201
     26          6    20001002       -7.129570   -0.267988    0.634543
     27          6    20001001       -8.111510   -0.979575    1.542044
     28          8    20001024       -7.396615    0.764888    0.088655
     29          1    20001035       -4.960974    3.430228    0.707904
     30          1    20001035       -3.259496    3.137873    0.383595
     31          1    20001035       -3.869585    2.999894    2.028054
     32          1    20001029       -4.798825    0.925908    1.529238
     33          1    20001034       -4.862320   -0.558054   -2.728212
     34          1    20001034       -5.810792   -1.869562   -2.028211
     35          1    20001034       -6.448149   -0.226009   -2.084497
     36          1    20001034       -4.116428   -2.490495   -0.355281
     37          1    20001034       -3.427952   -1.338203    0.749770
     38          1    20001034       -1.986592   -2.335742   -1.116161
     39          1    20001034       -2.820599   -1.307758   -2.238077
     40          1    20001034       -1.923106    0.698884   -1.097609
     41          1    20001034       -0.682528   -0.374806   -1.647977
     42          1    20001033       -1.525260    0.156659    1.237025
     43          1    20001033        0.490233   -0.743694    1.918571
     44          1    20001034        0.835229   -1.842304   -0.916082
     45          1    20001034        1.618467   -2.402556    0.529387
     46          1    20001034        3.140350   -1.203982   -0.996177
     47          1    20001034        2.177803    0.231588   -0.892350
     48          1    20001034        3.147083   -0.924897    1.708036
     49          1    20001034        2.844527    0.736929    1.283996
     50          1    20001034        5.199382   -0.252456    2.869930
     51          1    20001034        4.751638    1.395081    2.494082
     52          1    20001034        6.369478    0.800646    2.100348
     53          1    20001029        4.861866   -1.875181   -0.022449
     54          1    20001034        8.253545   -2.702848   -0.425830
     55          1    20001034        6.965781   -2.496306   -1.606972
     56          1    20001034        6.666138   -3.437637   -0.149473
     57          1    20001029        5.311528    2.611355    0.845200
     58          1    20001035        5.270179    4.309035   -0.714379
     59          1    20001035        4.683746    3.190409   -1.941124
     60          1    20001035        6.389769    3.207832   -1.523745
     61          1    20001029       -5.841824   -1.797790    0.878492
     62          1    20001034       -8.843624   -0.266397    1.891842
     63          1    20001034       -7.622790   -1.447238    2.389389
     64          1    20001034       -8.623626   -1.751693    0.976913
 ---------------------------------------------------------------------

 SCF Done:  E(RHF) =  -1295.62052766     A.U. after   14 cycles

 The electronic state is 1-A.
 Alpha  occ. eigenvalues --  -20.53669 -20.52116 -20.51879 -20.51665 -15.59628
 Alpha  occ. eigenvalues --  -15.57935 -15.57612 -15.57564 -11.35987 -11.34328
 Alpha  occ. eigenvalues --  -11.33891 -11.33725 -11.29049 -11.28597 -11.25027
 Alpha  occ. eigenvalues --  -11.24931 -11.24375 -11.24024 -11.23366 -11.22719
 Alpha  occ. eigenvalues --  -11.22588 -11.22567 -11.22257 -11.22237 -11.22023
 Alpha  occ. eigenvalues --  -11.21828 -11.21630 -11.20874  -1.40606  -1.39427
 Alpha  occ. eigenvalues --   -1.38737  -1.38147  -1.25454  -1.23625  -1.22654
 Alpha  occ. eigenvalues --   -1.22110  -1.10778  -1.09279  -1.07220  -1.04249
 Alpha  occ. eigenvalues --   -1.01245  -0.99354  -0.98790  -0.95548  -0.95156
 Alpha  occ. eigenvalues --   -0.94614  -0.92195  -0.87283  -0.85757  -0.82854
 Alpha  occ. eigenvalues --   -0.81369  -0.79557  -0.78770  -0.77209  -0.76918
 Alpha  occ. eigenvalues --   -0.71820  -0.71396  -0.71163  -0.68965  -0.67923
 Alpha  occ. eigenvalues --   -0.66949  -0.65879  -0.64547  -0.63986  -0.63525
 Alpha  occ. eigenvalues --   -0.62665  -0.62448  -0.61579  -0.61517  -0.61226
 Alpha  occ. eigenvalues --   -0.60953  -0.59900  -0.59421  -0.58899  -0.58449
 Alpha  occ. eigenvalues --   -0.58262  -0.57833  -0.56563  -0.56510  -0.56210
 Alpha  occ. eigenvalues --   -0.55613  -0.54924  -0.54817  -0.54576  -0.53807
 Alpha  occ. eigenvalues --   -0.53045  -0.52945  -0.52642  -0.52250  -0.51357
 Alpha  occ. eigenvalues --   -0.51042  -0.50340  -0.49816  -0.49321  -0.48651
 Alpha  occ. eigenvalues --   -0.48271  -0.46944  -0.46327  -0.44596  -0.42890
 Alpha  occ. eigenvalues --   -0.41966  -0.41567  -0.41126  -0.39312  -0.38899
 Alpha  occ. eigenvalues --   -0.38351  -0.38305  -0.34505
 Alpha virt. eigenvalues --    0.17413   0.18783   0.19601   0.19971   0.20233
 Alpha virt. eigenvalues --    0.21528   0.21609   0.23154   0.23333   0.23969
 Alpha virt. eigenvalues --    0.25185   0.25556   0.26521   0.26925   0.27408

 Mulliken atomic charges:
              1
     1  C   -0.279631
     2  N   -0.783365
     3  C    0.821924
     4  O   -0.628358
     5  C    0.102316
     6  C   -0.472772
     7  C   -0.334346
     8  C   -0.311724
     9  C   -0.373510
    10  C   -0.179960
    11  C   -0.175411
    12  C   -0.357458
    13  C   -0.318348
    14  C   -0.325291
    15  C    0.084586
    16  C   -0.509809
    17  N   -0.784552
    18  C    0.766621
    19  C   -0.595469
    20  O   -0.613424
    21  C    0.823102
    22  O   -0.638922
    23  N   -0.806630
    24  C   -0.275621
    25  N   -0.843073
    26  C    0.744558
    27  C   -0.588686
    28  O   -0.591788
    29  H    0.187037
    30  H    0.198017
    31  H    0.162422
    32  H    0.391406
    33  H    0.198847
    34  H    0.144191
    35  H    0.212532
    36  H    0.161448
    37  H    0.182229
    38  H    0.164569
    39  H    0.179786
    40  H    0.213062
    41  H    0.174251
    42  H    0.180499
    43  H    0.170075
    44  H    0.176046
    45  H    0.158242
    46  H    0.174491
    47  H    0.186916
    48  H    0.174595
    49  H    0.186160
    50  H    0.183294
    51  H    0.148949
    52  H    0.226450
    53  H    0.387649
    54  H    0.211419
    55  H    0.209250
    56  H    0.176316
    57  H    0.395544
    58  H    0.165156
    59  H    0.199263
    60  H    0.184992
    61  H    0.382654
    62  H    0.218647
    63  H    0.177229
    64  H    0.201404
 Sum of Mulliken atomic charges =   0.00000

 Dipole moment (field-independent basis, Debye):
    X=             -2.7092    Y=             -4.4232    Z=              5.6249  Tot=              7.6514
 Quadrupole moment (field-independent basis, Debye-Ang):
   XX=           -202.9574   YY=           -154.6660   ZZ=           -172.4626
   XY=             25.6281   XZ=            -15.7351   YZ=              8.7958

 Normal termination of Gaussian 09 at Thu Dec  5 19:45:18 2019.
