 Gaussian 09, Revision A.02,
 Gaussian 09:  EM64L-G09RevA.02 11-Jun-2009

 ---------------------------------
 #SP HF/6-31G* Geom=(ModRedundant)
 ---------------------------------

 ------------
 paramfit run
 ------------
 Symbolic Z-matrix:
 Charge =  0 Multiplicity = 1

                         Standard orientation:
 ---------------------------------------------------------------------
 Center     Atomic      Atomic             Coordinates (Angstroms)
 Number     Number       Type             X           Y           Z
 ---------------------------------------------------------------------
      1          6    20001001        4.411229   -2.132337    2.214914
      2          7    20001014        4.429303   -0.955483    1.371152
      3          6    20001002        4.630144   -1.083251    0.038693
      4          8    20001024        4.574011   -2.141621   -0.523844
      5          6    90000001        4.801397    0.224203   -0.755426
      6          6    90000002        5.466327   -0.077069   -2.102625
      7          6    90000002        3.425459    0.919162   -0.943652
      8          6    90000002        2.311515    0.176919   -1.703809
      9          6    90000002        1.469100   -0.847222   -0.917609
     10          6    20001004        0.785571   -0.274299    0.301745
     11          6    20001004       -0.468985    0.133130    0.405901
     12          6    90000002       -1.528559    0.127165   -0.669748
     13          6    90000002       -2.549790   -1.018066   -0.546882
     14          6    90000002       -3.341652   -0.967215    0.766618
     15          6    90000002       -4.666411   -0.161471    0.787552
     16          6    90000002       -5.285510   -0.321247    2.185636
     17          7    20001014       -4.359262    1.242466    0.550592
     18          6    20001002       -5.346287    2.168084    0.371516
     19          6    20001001       -4.891081    3.476717   -0.232696
     20          8    20001024       -6.490687    1.965669    0.669040
     21          6    20001002       -5.564599   -0.661981   -0.366343
     22          8    20001024       -5.414430   -0.235746   -1.479762
     23          7    20001014       -6.436563   -1.655615   -0.090028
     24          6    20001001       -7.343044   -2.136223   -1.112530
     25          7    20001014        5.603716    1.188486    0.011302
     26          6    20001002        6.884582    0.954365    0.416569
     27          6    20001001        7.649427    2.180267    0.870768
     28          8    20001024        7.369605   -0.141448    0.425902
     29          1    20001035        5.380256   -2.616626    2.252331
     30          1    20001035        3.687952   -2.840543    1.838035
     31          1    20001035        4.122509   -1.835891    3.215471
     32          1    20001029        4.723678   -0.102061    1.785034
     33          1    20001034        4.897428   -0.800692   -2.666234
     34          1    20001034        5.544873    0.839518   -2.679632
     35          1    20001034        6.455632   -0.483683   -1.951403
     36          1    20001034        3.632522    1.834752   -1.493232
     37          1    20001034        3.058604    1.225866    0.030838
     38          1    20001034        1.633359    0.939055   -2.076463
     39          1    20001034        2.723407   -0.313836   -2.579525
     40          1    20001034        2.086983   -1.683356   -0.616834
     41          1    20001034        0.733212   -1.250786   -1.604223
     42          1    20001033        1.404096   -0.199242    1.181464
     43          1    20001033       -0.786258    0.512165    1.364771
     44          1    20001034       -1.069586    0.068570   -1.649226
     45          1    20001034       -2.057730    1.078823   -0.639430
     46          1    20001034       -3.216630   -0.959453   -1.402607
     47          1    20001034       -2.035835   -1.966239   -0.634333
     48          1    20001034       -2.713490   -0.550426    1.550987
     49          1    20001034       -3.580594   -1.980866    1.066231
     50          1    20001034       -4.631046    0.148508    2.910610
     51          1    20001034       -5.374899   -1.367592    2.458679
     52          1    20001034       -6.253794    0.152135    2.249486
     53          1    20001029       -3.529749    1.413629    0.029703
     54          1    20001034       -5.612282    4.244456    0.002905
     55          1    20001034       -4.844397    3.361936   -1.311478
     56          1    20001034       -3.909966    3.771475    0.123551
     57          1    20001029       -6.697831   -1.805831    0.855744
     58          1    20001035       -7.865582   -3.003593   -0.731027
     59          1    20001035       -6.783640   -2.420336   -1.991719
     60          1    20001035       -8.067264   -1.379559   -1.396641
     61          1    20001029        5.338719    2.143124   -0.088658
     62          1    20001034        8.459767    1.868031    1.513288
     63          1    20001034        7.017387    2.887010    1.396685
     64          1    20001034        8.068838    2.679965    0.003475
 ---------------------------------------------------------------------

 SCF Done:  E(RHF) =  -1295.61308054     A.U. after   14 cycles

 The electronic state is 1-A.
 Alpha  occ. eigenvalues --  -20.53718 -20.52145 -20.51963 -20.51874 -15.59687
 Alpha  occ. eigenvalues --  -15.58114 -15.57639 -15.57459 -11.36036 -11.34330
 Alpha  occ. eigenvalues --  -11.33971 -11.33902 -11.29127 -11.28586 -11.25212
 Alpha  occ. eigenvalues --  -11.24992 -11.24409 -11.24124 -11.23207 -11.22955
 Alpha  occ. eigenvalues --  -11.22849 -11.22670 -11.22453 -11.22261 -11.21886
 Alpha  occ. eigenvalues --  -11.21824 -11.21816 -11.20941  -1.40658  -1.39573
 Alpha  occ. eigenvalues --   -1.38818  -1.38304  -1.25517  -1.23683  -1.22838
 Alpha  occ. eigenvalues --   -1.22182  -1.10926  -1.09321  -1.07330  -1.04379
 Alpha  occ. eigenvalues --   -1.01300  -0.99444  -0.98874  -0.95615  -0.95301
 Alpha  occ. eigenvalues --   -0.94701  -0.92288  -0.87446  -0.86064  -0.82940
 Alpha  occ. eigenvalues --   -0.81596  -0.79615  -0.78637  -0.77285  -0.77069
 Alpha  occ. eigenvalues --   -0.72259  -0.71572  -0.71242  -0.69040  -0.67680
 Alpha  occ. eigenvalues --   -0.67153  -0.65957  -0.64737  -0.64159  -0.63833
 Alpha  occ. eigenvalues --   -0.62853  -0.62515  -0.61717  -0.61339  -0.61028
 Alpha  occ. eigenvalues --   -0.60666  -0.60145  -0.59582  -0.59171  -0.58485
 Alpha  occ. eigenvalues --   -0.58314  -0.58058  -0.57312  -0.56620  -0.56197
 Alpha  occ. eigenvalues --   -0.55720  -0.55228  -0.54991  -0.54630  -0.53786
 Alpha  occ. eigenvalues --   -0.53370  -0.53208  -0.52867  -0.52185  -0.51146
 Alpha  occ. eigenvalues --   -0.50795  -0.50542  -0.49758  -0.49491  -0.48653
 Alpha  occ. eigenvalues --   -0.48328  -0.47072  -0.46293  -0.44769  -0.42951
 Alpha  occ. eigenvalues --   -0.42037  -0.41553  -0.41106  -0.39381  -0.39037
 Alpha  occ. eigenvalues --   -0.38427  -0.38343  -0.34746
 Alpha virt. eigenvalues --    0.17204   0.18730   0.19333   0.19899   0.20176
 Alpha virt. eigenvalues --    0.21117   0.21844   0.22970   0.23449   0.23592
 Alpha virt. eigenvalues --    0.25150   0.25319   0.26459   0.27083   0.27794

 Mulliken atomic charges:
              1
     1  C   -0.279727
     2  N   -0.783531
     3  C    0.821796
     4  O   -0.628574
     5  C    0.102380
     6  C   -0.472790
     7  C   -0.334622
     8  C   -0.311835
     9  C   -0.373964
    10  C   -0.180211
    11  C   -0.173384
    12  C   -0.362656
    13  C   -0.340132
    14  C   -0.337661
    15  C    0.087996
    16  C   -0.509103
    17  N   -0.809426
    18  C    0.768220
    19  C   -0.599753
    20  O   -0.613594
    21  C    0.819751
    22  O   -0.638767
    23  N   -0.805138
    24  C   -0.275515
    25  N   -0.843115
    26  C    0.744530
    27  C   -0.588718
    28  O   -0.591755
    29  H    0.187253
    30  H    0.197718
    31  H    0.162873
    32  H    0.391601
    33  H    0.198576
    34  H    0.144547
    35  H    0.212749
    36  H    0.162071
    37  H    0.182025
    38  H    0.165150
    39  H    0.180315
    40  H    0.213562
    41  H    0.173220
    42  H    0.182226
    43  H    0.171981
    44  H    0.184131
    45  H    0.138472
    46  H    0.221876
    47  H    0.175210
    48  H    0.184073
    49  H    0.181862
    50  H    0.183261
    51  H    0.149132
    52  H    0.225847
    53  H    0.417147
    54  H    0.211779
    55  H    0.208853
    56  H    0.175740
    57  H    0.396513
    58  H    0.165626
    59  H    0.197928
    60  H    0.185518
    61  H    0.382769
    62  H    0.218798
    63  H    0.177344
    64  H    0.201552
 Sum of Mulliken atomic charges =   0.00000

 Dipole moment (field-independent basis, Debye):
    X=              1.2987    Y=              3.7736    Z=              2.7545  Tot=              4.8491
 Quadrupole moment (field-independent basis, Debye-Ang):
   XX=           -202.7354   YY=           -164.5916   ZZ=           -168.0213
   XY=             52.0994   XZ=              0.6382   YZ=             -6.4357

 Normal termination of Gaussian 09 at Thu Dec  5 19:15:01 2019.
