 Gaussian 09, Revision A.02,
 Gaussian 09:  EM64L-G09RevA.02 11-Jun-2009

 ---------------------------------
 #SP HF/6-31G* Geom=(ModRedundant)
 ---------------------------------

 ------------
 paramfit run
 ------------
 Symbolic Z-matrix:
 Charge =  0 Multiplicity = 1

                         Standard orientation:
 ---------------------------------------------------------------------
 Center     Atomic      Atomic             Coordinates (Angstroms)
 Number     Number       Type             X           Y           Z
 ---------------------------------------------------------------------
      1          6    20001001        4.112862   -1.082723    2.858332
      2          7    20001014        4.058946   -0.359794    1.604652
      3          6    20001002        4.331078   -1.000443    0.443780
      4          8    20001024        4.399821   -2.195915    0.367180
      5          6    90000001        4.415036   -0.122889   -0.818058
      6          6    90000002        5.165648   -0.878578   -1.919583
      7          6    90000002        2.990048    0.286833   -1.279727
      8          6    90000002        1.986087   -0.813038   -1.669576
      9          6    90000002        1.208449   -1.506838   -0.533549
     10          6    20001004        0.419710   -0.559235    0.339502
     11          6    20001004       -0.870900   -0.277742    0.263052
     12          6    90000002       -1.875394   -0.833859   -0.717498
     13          6    90000002       -2.789466   -1.927679   -0.136468
     14          6    90000002       -3.641355   -1.425954    1.037190
     15          6    90000002       -4.441701   -0.111520    0.846508
     16          6    90000002       -5.249241    0.131532    2.131909
     17          7    20001014       -3.498927    0.981572    0.651930
     18          6    20001002       -3.920367    2.235503    0.315624
     19          6    20001001       -2.840899    3.149144   -0.218057
     20          8    20001024       -5.059605    2.592807    0.432301
     21          6    20001002       -5.302935   -0.241084   -0.430289
     22          8    20001024       -4.824968   -0.014371   -1.509214
     23          7    20001014       -6.560619   -0.712019   -0.287350
     24          6    20001001       -7.437944   -0.810106   -1.435776
     25          7    20001014        5.087980    1.148518   -0.514577
     26          6    20001002        6.365436    1.235478   -0.045305
     27          6    20001001        6.990795    2.612101   -0.134491
     28          8    20001024        6.949972    0.296552    0.416079
     29          1    20001035        5.120266   -1.405579    3.094657
     30          1    20001035        3.476885   -1.954150    2.804761
     31          1    20001035        3.752590   -0.434267    3.647041
     32          1    20001029        4.253077    0.613812    1.630914
     33          1    20001034        4.693121   -1.824406   -2.136513
     34          1    20001034        5.184141   -0.275998   -2.822796
     35          1    20001034        6.180789   -1.082316   -1.611514
     36          1    20001034        3.135210    0.913106   -2.157184
     37          1    20001034        2.552286    0.925787   -0.519212
     38          1    20001034        1.257172   -0.345419   -2.325040
     39          1    20001034        2.481389   -1.573667   -2.264129
     40          1    20001034        1.887603   -2.077229    0.086747
     41          1    20001034        0.545460   -2.230325   -0.994901
     42          1    20001033        0.987964   -0.066599    1.111841
     43          1    20001033       -1.265410    0.425525    0.979668
     44          1    20001034       -1.369011   -1.240409   -1.584540
     45          1    20001034       -2.492145   -0.013937   -1.083476
     46          1    20001034       -3.419372   -2.294361   -0.942158
     47          1    20001034       -2.185584   -2.769425    0.175974
     48          1    20001034       -3.005510   -1.277671    1.907390
     49          1    20001034       -4.354634   -2.197629    1.301952
     50          1    20001034       -4.558023    0.310582    2.947226
     51          1    20001034       -5.842297   -0.738529    2.393938
     52          1    20001034       -5.893536    0.993154    2.041185
     53          1    20001029       -2.620483    0.721020    0.265719
     54          1    20001034       -3.156992    4.174698   -0.102375
     55          1    20001034       -2.705442    2.943607   -1.275663
     56          1    20001034       -1.892076    2.997389    0.285021
     57          1    20001029       -6.987575   -0.655945    0.607007
     58          1    20001035       -8.345042   -1.317804   -1.135216
     59          1    20001035       -6.955977   -1.381683   -2.215285
     60          1    20001035       -7.691042    0.167255   -1.833847
     61          1    20001029        4.739600    1.945250   -0.999754
     62          1    20001034        7.796830    2.676514    0.581842
     63          1    20001034        6.272183    3.402335    0.051733
     64          1    20001034        7.400487    2.753387   -1.129474
 ---------------------------------------------------------------------

 SCF Done:  E(RHF) =  -1295.59356019     A.U. after   14 cycles

 The electronic state is 1-A.
 Alpha  occ. eigenvalues --  -20.53723 -20.52084 -20.52003 -20.51994 -15.59697
 Alpha  occ. eigenvalues --  -15.58246 -15.57674 -15.56746 -11.36039 -11.34201
 Alpha  occ. eigenvalues --  -11.34065 -11.34000 -11.29149 -11.28615 -11.25329
 Alpha  occ. eigenvalues --  -11.25020 -11.24400 -11.24162 -11.23315 -11.22892
 Alpha  occ. eigenvalues --  -11.22689 -11.22667 -11.22396 -11.22327 -11.21898
 Alpha  occ. eigenvalues --  -11.21862 -11.21853 -11.20953  -1.40665  -1.39652
 Alpha  occ. eigenvalues --   -1.38848  -1.38314  -1.25531  -1.23927  -1.22987
 Alpha  occ. eigenvalues --   -1.22213  -1.10944  -1.09231  -1.07681  -1.04511
 Alpha  occ. eigenvalues --   -1.01335  -0.99582  -0.98882  -0.95644  -0.95423
 Alpha  occ. eigenvalues --   -0.94733  -0.92232  -0.87764  -0.86300  -0.83510
 Alpha  occ. eigenvalues --   -0.81844  -0.79347  -0.78427  -0.77511  -0.77311
 Alpha  occ. eigenvalues --   -0.73043  -0.71679  -0.71287  -0.69012  -0.67682
 Alpha  occ. eigenvalues --   -0.66186  -0.65900  -0.64900  -0.64281  -0.63964
 Alpha  occ. eigenvalues --   -0.62801  -0.62525  -0.62066  -0.61406  -0.61089
 Alpha  occ. eigenvalues --   -0.60786  -0.60151  -0.59693  -0.58854  -0.58704
 Alpha  occ. eigenvalues --   -0.58305  -0.58202  -0.57444  -0.56875  -0.56060
 Alpha  occ. eigenvalues --   -0.55560  -0.55151  -0.54907  -0.54653  -0.53688
 Alpha  occ. eigenvalues --   -0.53153  -0.53052  -0.52832  -0.52095  -0.51547
 Alpha  occ. eigenvalues --   -0.51141  -0.50274  -0.49998  -0.49469  -0.48486
 Alpha  occ. eigenvalues --   -0.48370  -0.47114  -0.46400  -0.44811  -0.42963
 Alpha  occ. eigenvalues --   -0.42056  -0.41777  -0.40942  -0.39402  -0.39026
 Alpha  occ. eigenvalues --   -0.38461  -0.38069  -0.34901
 Alpha virt. eigenvalues --    0.16620   0.18726   0.19410   0.19861   0.20101
 Alpha virt. eigenvalues --    0.21335   0.22017   0.23023   0.23731   0.24450
 Alpha virt. eigenvalues --    0.25350   0.26006   0.26439   0.27110   0.27878

 Mulliken atomic charges:
              1
     1  C   -0.279834
     2  N   -0.783818
     3  C    0.821789
     4  O   -0.628618
     5  C    0.102403
     6  C   -0.472843
     7  C   -0.334645
     8  C   -0.313130
     9  C   -0.374586
    10  C   -0.198533
    11  C   -0.189944
    12  C   -0.442232
    13  C   -0.294067
    14  C   -0.333827
    15  C    0.079992
    16  C   -0.508748
    17  N   -0.825769
    18  C    0.772123
    19  C   -0.603437
    20  O   -0.617577
    21  C    0.827054
    22  O   -0.639871
    23  N   -0.806992
    24  C   -0.276010
    25  N   -0.843231
    26  C    0.744491
    27  C   -0.588725
    28  O   -0.591767
    29  H    0.187510
    30  H    0.197516
    31  H    0.163062
    32  H    0.391690
    33  H    0.198459
    34  H    0.144942
    35  H    0.212851
    36  H    0.163082
    37  H    0.180726
    38  H    0.167957
    39  H    0.180971
    40  H    0.213577
    41  H    0.175260
    42  H    0.183576
    43  H    0.193217
    44  H    0.185268
    45  H    0.240836
    46  H    0.183935
    47  H    0.172812
    48  H    0.186361
    49  H    0.179300
    50  H    0.184283
    51  H    0.148486
    52  H    0.226107
    53  H    0.414706
    54  H    0.211479
    55  H    0.207076
    56  H    0.177776
    57  H    0.397079
    58  H    0.165958
    59  H    0.197711
    60  H    0.185843
    61  H    0.382917
    62  H    0.218857
    63  H    0.177446
    64  H    0.201720
 Sum of Mulliken atomic charges =   0.00000

 Dipole moment (field-independent basis, Debye):
    X=             -0.5096    Y=              2.9992    Z=              0.5902  Tot=              3.0989
 Quadrupole moment (field-independent basis, Debye-Ang):
   XX=           -185.5465   YY=           -174.6797   ZZ=           -166.3559
   XY=             49.8213   XZ=            -14.3228   YZ=             -1.8573

 Normal termination of Gaussian 09 at Thu Dec  5 19:48:32 2019.
