 Gaussian 09, Revision A.02,
 Gaussian 09:  EM64L-G09RevA.02 11-Jun-2009

 ---------------------------------
 #SP HF/6-31G* Geom=(ModRedundant)
 ---------------------------------

 ------------
 paramfit run
 ------------
 Symbolic Z-matrix:
 Charge =  0 Multiplicity = 1

                         Standard orientation:
 ---------------------------------------------------------------------
 Center     Atomic      Atomic             Coordinates (Angstroms)
 Number     Number       Type             X           Y           Z
 ---------------------------------------------------------------------
      1          6    20001001       -3.466625    2.882067    0.302819
      2          7    20001014       -3.888250    1.502046    0.425370
      3          6    20001002       -4.120142    0.765800   -0.686509
      4          8    20001024       -3.781552    1.124570   -1.780304
      5          6    90000001       -4.723921   -0.632962   -0.466729
      6          6    90000002       -5.346162   -1.134437   -1.774085
      7          6    90000002       -3.634751   -1.609078    0.055294
      8          6    90000002       -2.396289   -1.882148   -0.817220
      9          6    90000002       -1.239482   -0.864991   -0.755355
     10          6    20001004       -0.688916   -0.643918    0.633990
     11          6    20001004        0.388663   -1.192791    1.170945
     12          6    90000002        1.334981   -2.177757    0.527457
     13          6    90000002        2.659002   -1.560212    0.042513
     14          6    90000002        3.475432   -0.938241    1.183350
     15          6    90000002        4.710055   -0.077432    0.810040
     16          6    90000002        5.305978    0.471654    2.116498
     17          7    20001014        5.689098   -0.931512    0.151594
     18          6    20001002        6.817640   -0.415695   -0.417073
     19          6    20001001        7.530155   -1.343202   -1.374601
     20          8    20001024        7.219986    0.689218   -0.179529
     21          6    20001002        4.265286    1.011364   -0.192671
     22          8    20001024        4.184834    0.759220   -1.364797
     23          7    20001014        3.879401    2.202715    0.313052
     24          6    20001001        3.499559    3.283264   -0.573703
     25          7    20001014       -5.732242   -0.593991    0.602478
     26          6    20001002       -6.856752    0.175978    0.554556
     27          6    20001001       -7.926737   -0.185222    1.563904
     28          8    20001024       -6.987948    1.081137   -0.219792
     29          1    20001035       -4.240896    3.503118   -0.132785
     30          1    20001035       -2.587448    2.940968   -0.321923
     31          1    20001035       -3.221598    3.257463    1.288412
     32          1    20001029       -4.400730    1.252248    1.238544
     33          1    20001034       -4.620374   -1.147169   -2.572836
     34          1    20001034       -5.731137   -2.139373   -1.628702
     35          1    20001034       -6.156349   -0.487609   -2.077622
     36          1    20001034       -4.140115   -2.561319    0.200432
     37          1    20001034       -3.319997   -1.278709    1.040213
     38          1    20001034       -2.002425   -2.843166   -0.499521
     39          1    20001034       -2.692632   -2.005962   -1.853668
     40          1    20001034       -1.557978    0.084773   -1.165076
     41          1    20001034       -0.458421   -1.228134   -1.414069
     42          1    20001033       -1.247907    0.046829    1.244326
     43          1    20001033        0.633525   -0.910545    2.182944
     44          1    20001034        0.857568   -2.661703   -0.315952
     45          1    20001034        1.553949   -2.966965    1.245648
     46          1    20001034        3.225164   -2.341929   -0.456240
     47          1    20001034        2.450071   -0.815165   -0.713849
     48          1    20001034        3.835198   -1.726444    1.841254
     49          1    20001034        2.819356   -0.313274    1.777767
     50          1    20001034        5.679450   -0.359257    2.703599
     51          1    20001034        4.551530    0.976355    2.711028
     52          1    20001034        6.127251    1.146584    1.927503
     53          1    20001029        5.314307   -1.725452   -0.315207
     54          1    20001034        8.556629   -1.025325   -1.476420
     55          1    20001034        7.047008   -1.276502   -2.344779
     56          1    20001034        7.495561   -2.375806   -1.044576
     57          1    20001029        4.181924    2.449122    1.225781
     58          1    20001035        3.111966    4.099142    0.022146
     59          1    20001035        2.729643    2.945287   -1.251661
     60          1    20001035        4.341168    3.637825   -1.159993
     61          1    20001029       -5.773345   -1.401570    1.183575
     62          1    20001034       -8.565802    0.672139    1.717206
     63          1    20001034       -7.506678   -0.502244    2.511848
     64          1    20001034       -8.527892   -0.998430    1.170068
 ---------------------------------------------------------------------

 SCF Done:  E(RHF) =  -1295.62099074     A.U. after   14 cycles

 The electronic state is 1-A.
 Alpha  occ. eigenvalues --  -20.53627 -20.52011 -20.51812 -20.51566 -15.59582
 Alpha  occ. eigenvalues --  -15.57861 -15.57509 -15.57483 -11.35946 -11.34209
 Alpha  occ. eigenvalues --  -11.33826 -11.33653 -11.28993 -11.28520 -11.24916
 Alpha  occ. eigenvalues --  -11.24882 -11.24343 -11.23963 -11.23311 -11.22640
 Alpha  occ. eigenvalues --  -11.22477 -11.22466 -11.22159 -11.22137 -11.21964
 Alpha  occ. eigenvalues --  -11.21769 -11.21511 -11.20820  -1.40563  -1.39346
 Alpha  occ. eigenvalues --   -1.38671  -1.38075  -1.25405  -1.23498  -1.22573
 Alpha  occ. eigenvalues --   -1.22055  -1.10702  -1.09212  -1.07131  -1.04161
 Alpha  occ. eigenvalues --   -1.01184  -0.99280  -0.98687  -0.95496  -0.95079
 Alpha  occ. eigenvalues --   -0.94523  -0.92140  -0.87226  -0.85662  -0.82793
 Alpha  occ. eigenvalues --   -0.81283  -0.79426  -0.78722  -0.77153  -0.76831
 Alpha  occ. eigenvalues --   -0.71920  -0.71237  -0.71025  -0.68915  -0.68015
 Alpha  occ. eigenvalues --   -0.66495  -0.65814  -0.64532  -0.63954  -0.63817
 Alpha  occ. eigenvalues --   -0.62571  -0.62276  -0.61768  -0.61314  -0.61051
 Alpha  occ. eigenvalues --   -0.60883  -0.59880  -0.59260  -0.58577  -0.58381
 Alpha  occ. eigenvalues --   -0.58234  -0.57793  -0.56574  -0.56543  -0.56062
 Alpha  occ. eigenvalues --   -0.55379  -0.54789  -0.54682  -0.54540  -0.54091
 Alpha  occ. eigenvalues --   -0.53146  -0.52761  -0.52450  -0.51853  -0.51546
 Alpha  occ. eigenvalues --   -0.50999  -0.50304  -0.49742  -0.49179  -0.48396
 Alpha  occ. eigenvalues --   -0.48223  -0.46870  -0.46401  -0.44428  -0.42841
 Alpha  occ. eigenvalues --   -0.41910  -0.41449  -0.41017  -0.39258  -0.38815
 Alpha  occ. eigenvalues --   -0.38289  -0.38190  -0.34460
 Alpha virt. eigenvalues --    0.17310   0.18821   0.19611   0.20012   0.20247
 Alpha virt. eigenvalues --    0.21595   0.22114   0.23107   0.23326   0.23920
 Alpha virt. eigenvalues --    0.25329   0.25757   0.26578   0.26783   0.27838

 Mulliken atomic charges:
              1
     1  C   -0.279615
     2  N   -0.783388
     3  C    0.821889
     4  O   -0.627872
     5  C    0.102323
     6  C   -0.472800
     7  C   -0.334218
     8  C   -0.312130
     9  C   -0.373743
    10  C   -0.177509
    11  C   -0.178095
    12  C   -0.349449
    13  C   -0.323663
    14  C   -0.330460
    15  C    0.092634
    16  C   -0.509621
    17  N   -0.788461
    18  C    0.767274
    19  C   -0.595419
    20  O   -0.613912
    21  C    0.819578
    22  O   -0.638563
    23  N   -0.804415
    24  C   -0.275738
    25  N   -0.843074
    26  C    0.744563
    27  C   -0.588662
    28  O   -0.591757
    29  H    0.186979
    30  H    0.198519
    31  H    0.161836
    32  H    0.391222
    33  H    0.199102
    34  H    0.143989
    35  H    0.212450
    36  H    0.161215
    37  H    0.181986
    38  H    0.164310
    39  H    0.179794
    40  H    0.213796
    41  H    0.176030
    42  H    0.180048
    43  H    0.168499
    44  H    0.176609
    45  H    0.159807
    46  H    0.144391
    47  H    0.215147
    48  H    0.174926
    49  H    0.182967
    50  H    0.183620
    51  H    0.147896
    52  H    0.226546
    53  H    0.390714
    54  H    0.210983
    55  H    0.209657
    56  H    0.176317
    57  H    0.395118
    58  H    0.164192
    59  H    0.201075
    60  H    0.184962
    61  H    0.382569
    62  H    0.218564
    63  H    0.177127
    64  H    0.201342
 Sum of Mulliken atomic charges =   0.00000

 Dipole moment (field-independent basis, Debye):
    X=             -2.5834    Y=             -4.5200    Z=              6.8258  Tot=              8.5846
 Quadrupole moment (field-independent basis, Debye-Ang):
   XX=           -185.7979   YY=           -158.5213   ZZ=           -173.3252
   XY=              6.7945   XZ=            -19.3114   YZ=             11.0194

 Normal termination of Gaussian 09 at Thu Dec  5 18:27:42 2019.
