 Gaussian 09, Revision A.02,
 Gaussian 09:  EM64L-G09RevA.02 11-Jun-2009

 ---------------------------------
 #SP HF/6-31G* Geom=(ModRedundant)
 ---------------------------------

 ------------
 paramfit run
 ------------
 Symbolic Z-matrix:
 Charge =  0 Multiplicity = 1

                         Standard orientation:
 ---------------------------------------------------------------------
 Center     Atomic      Atomic             Coordinates (Angstroms)
 Number     Number       Type             X           Y           Z
 ---------------------------------------------------------------------
      1          6    20001001       -2.221880    2.841712   -0.166435
      2          7    20001014       -2.626014    1.483994    0.134435
      3          6    20001002       -3.136486    0.699302   -0.843209
      4          8    20001024       -3.069345    0.990328   -2.005337
      5          6    90000001       -3.693751   -0.666301   -0.402792
      6          6    90000002       -4.626152   -1.214243   -1.488255
      7          6    90000002       -2.528099   -1.648557   -0.106089
      8          6    90000002       -1.546082   -2.005568   -1.236497
      9          6    90000002       -0.390797   -1.024041   -1.516781
     10          6    20001004        0.487029   -0.749481   -0.318316
     11          6    20001004        1.652961   -1.304139   -0.028982
     12          6    90000002        2.394720   -2.350626   -0.825481
     13          6    90000002        3.570924   -1.801450   -1.652835
     14          6    90000002        4.653039   -1.148003   -0.782806
     15          6    90000002        4.247410    0.063214    0.096435
     16          6    90000002        5.484560    0.485057    0.905730
     17          7    20001014        3.843571    1.156258   -0.777466
     18          6    20001002        3.298085    2.303782   -0.278778
     19          6    20001001        2.589836    3.167875   -1.296880
     20          8    20001024        3.371438    2.610259    0.878734
     21          6    20001002        3.030821   -0.341292    0.959575
     22          8    20001024        1.919749   -0.283744    0.505552
     23          7    20001014        3.279423   -0.850477    2.185506
     24          6    20001001        2.183860   -1.202078    3.065461
     25          7    20001014       -4.408835   -0.540192    0.875559
     26          6    20001002       -5.496509    0.261815    1.058385
     27          6    20001001       -6.293387   -0.012621    2.316872
     28          8    20001024       -5.796548    1.129665    0.288351
     29          1    20001035       -3.067649    3.463941   -0.435610
     30          1    20001035       -1.521409    2.840284   -0.988666
     31          1    20001035       -1.736224    3.259298    0.706556
     32          1    20001029       -2.928399    1.292857    1.060888
     33          1    20001034       -4.118284   -1.291224   -2.437506
     34          1    20001034       -4.982266   -2.197559   -1.195835
     35          1    20001034       -5.473943   -0.558341   -1.622307
     36          1    20001034       -3.000009   -2.575443    0.212349
     37          1    20001034       -1.975841   -1.278176    0.751879
     38          1    20001034       -1.104198   -2.961057   -0.969297
     39          1    20001034       -2.089301   -2.173011   -2.160754
     40          1    20001034       -0.782346   -0.086926   -1.890769
     41          1    20001034        0.198478   -1.445352   -2.323680
     42          1    20001033        0.107221   -0.010749    0.368804
     43          1    20001033        2.143205   -0.978167    0.874989
     44          1    20001034        1.716586   -2.861826   -1.497994
     45          1    20001034        2.768236   -3.108430   -0.137868
     46          1    20001034        3.983318   -2.625473   -2.228415
     47          1    20001034        3.196983   -1.090009   -2.377301
     48          1    20001034        5.470604   -0.810595   -1.416269
     49          1    20001034        5.064401   -1.899646   -0.119356
     50          1    20001034        6.241591    0.846068    0.219321
     51          1    20001034        5.908387   -0.356821    1.443311
     52          1    20001034        5.254699    1.278276    1.601220
     53          1    20001029        3.492878    0.881764   -1.666499
     54          1    20001034        2.527594    4.177775   -0.920994
     55          1    20001034        1.583141    2.785004   -1.435082
     56          1    20001034        3.093435    3.162990   -2.257476
     57          1    20001029        4.157680   -0.660267    2.607164
     58          1    20001035        2.587300   -1.699145    3.937861
     59          1    20001035        1.509111   -1.875005    2.557023
     60          1    20001035        1.623477   -0.327593    3.380104
     61          1    20001029       -4.321326   -1.315080    1.494783
     62          1    20001034       -6.859607    0.871464    2.571355
     63          1    20001034       -5.660009   -0.293710    3.150762
     64          1    20001034       -6.987509   -0.825399    2.128752
 ---------------------------------------------------------------------

 SCF Done:  E(RHF) =  -1294.75456732     A.U. after   22 cycles

 The electronic state is 1-A.
 Alpha  occ. eigenvalues --  -20.66919 -20.53801 -20.52197 -20.51023 -15.59807
 Alpha  occ. eigenvalues --  -15.57801 -15.56443 -15.50538 -11.36115 -11.34185
 Alpha  occ. eigenvalues --  -11.33269 -11.29336 -11.28912 -11.25977 -11.25248
 Alpha  occ. eigenvalues --  -11.25064 -11.24431 -11.24411 -11.23601 -11.23460
 Alpha  occ. eigenvalues --  -11.23445 -11.23207 -11.22340 -11.21961 -11.21145
 Alpha  occ. eigenvalues --  -11.21137 -11.19121 -11.18082  -1.82097  -1.40752
 Alpha  occ. eigenvalues --   -1.39044  -1.37730  -1.25654  -1.23705  -1.22336
 Alpha  occ. eigenvalues --   -1.21850  -1.14633  -1.09687  -1.09095  -1.04695
 Alpha  occ. eigenvalues --   -1.03514  -1.00212  -0.98427  -0.97298  -0.96196
 Alpha  occ. eigenvalues --   -0.95734  -0.94189  -0.91120  -0.88533  -0.87960
 Alpha  occ. eigenvalues --   -0.84582  -0.82268  -0.79829  -0.79526  -0.77452
 Alpha  occ. eigenvalues --   -0.76889  -0.75132  -0.71435  -0.70027  -0.69705
 Alpha  occ. eigenvalues --   -0.68510  -0.66963  -0.66119  -0.65024  -0.64499
 Alpha  occ. eigenvalues --   -0.63397  -0.62831  -0.62609  -0.61835  -0.61131
 Alpha  occ. eigenvalues --   -0.60679  -0.60392  -0.59550  -0.58979  -0.58642
 Alpha  occ. eigenvalues --   -0.58422  -0.58147  -0.57208  -0.56598  -0.56349
 Alpha  occ. eigenvalues --   -0.55815  -0.55032  -0.54725  -0.54345  -0.53739
 Alpha  occ. eigenvalues --   -0.53375  -0.53038  -0.52492  -0.52250  -0.51302
 Alpha  occ. eigenvalues --   -0.51002  -0.50372  -0.49551  -0.49319  -0.48157
 Alpha  occ. eigenvalues --   -0.47696  -0.46784  -0.46269  -0.44747  -0.43075
 Alpha  occ. eigenvalues --   -0.42204  -0.40848  -0.39546  -0.39284  -0.38608
 Alpha  occ. eigenvalues --   -0.37541  -0.31359  -0.14694
 Alpha virt. eigenvalues --    0.11066   0.18634   0.19075   0.19717   0.20212
 Alpha virt. eigenvalues --    0.21175   0.22385   0.23211   0.23713   0.25146
 Alpha virt. eigenvalues --    0.25336   0.26329   0.26561   0.27626   0.28153

 Mulliken atomic charges:
              1
     1  C   -0.281898
     2  N   -0.784293
     3  C    0.821388
     4  O   -0.630444
     5  C    0.102884
     6  C   -0.472577
     7  C   -0.333691
     8  C   -0.309005
     9  C   -0.381899
    10  C   -0.212223
    11  C    0.035074
    12  C   -0.322766
    13  C   -0.338343
    14  C   -0.301152
    15  C    0.174412
    16  C   -0.500553
    17  N   -0.809847
    18  C    0.746812
    19  C   -0.591320
    20  O   -0.596128
    21  C    0.140663
    22  O   -0.276278
    23  N   -0.810181
    24  C   -0.290644
    25  N   -0.843029
    26  C    0.744668
    27  C   -0.588967
    28  O   -0.591647
    29  H    0.188282
    30  H    0.191599
    31  H    0.171859
    32  H    0.393585
    33  H    0.197523
    34  H    0.144828
    35  H    0.213536
    36  H    0.163214
    37  H    0.180404
    38  H    0.161497
    39  H    0.178579
    40  H    0.213982
    41  H    0.164053
    42  H    0.223200
    43  H    0.387736
    44  H    0.191237
    45  H    0.198060
    46  H    0.180115
    47  H    0.148791
    48  H    0.149837
    49  H    0.173023
    50  H    0.164747
    51  H    0.144733
    52  H    0.222020
    53  H    0.373971
    54  H    0.211166
    55  H    0.188927
    56  H    0.180577
    57  H    0.364089
    58  H    0.171877
    59  H    0.138388
    60  H    0.143081
    61  H    0.383180
    62  H    0.219600
    63  H    0.178446
    64  H    0.201245
 Sum of Mulliken atomic charges =   0.00000

 Dipole moment (field-independent basis, Debye):
    X=             -1.3561    Y=             -5.4166    Z=              1.6026  Tot=              5.8093
 Quadrupole moment (field-independent basis, Debye-Ang):
   XX=           -184.2557   YY=           -171.0488   ZZ=           -169.5909
   XY=              7.4162   XZ=            -31.7259   YZ=             -2.5922

 Normal termination of Gaussian 09 at Thu Dec  5 18:43:41 2019.
