 Gaussian 09, Revision A.02,
 Gaussian 09:  EM64L-G09RevA.02 11-Jun-2009

 ---------------------------------
 #SP HF/6-31G* Geom=(ModRedundant)
 ---------------------------------

 ------------
 paramfit run
 ------------
 Symbolic Z-matrix:
 Charge =  0 Multiplicity = 1

                         Standard orientation:
 ---------------------------------------------------------------------
 Center     Atomic      Atomic             Coordinates (Angstroms)
 Number     Number       Type             X           Y           Z
 ---------------------------------------------------------------------
      1          6    20001001        4.409028   -2.470664    1.806870
      2          7    20001014        4.492131   -1.162879    1.190398
      3          6    20001002        4.673783   -1.057252   -0.146746
      4          8    20001024        4.548349   -1.990240   -0.890752
      5          6    90000001        4.918175    0.360683   -0.693663
      6          6    90000002        5.552291    0.271472   -2.085705
      7          6    90000002        3.585841    1.157822   -0.726186
      8          6    90000002        2.422330    0.633194   -1.586793
      9          6    90000002        1.525331   -0.465846   -0.983352
     10          6    20001004        0.888222   -0.085618    0.332626
     11          6    20001004       -0.338147    0.368906    0.533086
     12          6    90000002       -1.404933    0.621239   -0.505205
     13          6    90000002       -2.493288   -0.465279   -0.572492
     14          6    90000002       -3.269697   -0.608267    0.743433
     15          6    90000002       -4.747657   -0.139771    0.771537
     16          6    90000002       -5.305966   -0.446699    2.170658
     17          7    20001014       -4.783102    1.297775    0.539729
     18          6    20001002       -5.962144    1.963520    0.367391
     19          6    20001001       -5.832530    3.344877   -0.232488
     20          8    20001024       -7.024773    1.494433    0.667259
     21          6    20001002       -5.505842   -0.834984   -0.381963
     22          8    20001024       -5.465207   -0.381408   -1.493965
     23          7    20001014       -6.116251   -2.008025   -0.107457
     24          6    20001001       -6.886720   -2.686330   -1.129457
     25          7    20001014        5.784297    1.120333    0.219680
     26          6    20001002        7.051732    0.741535    0.551027
     27          6    20001001        7.893885    1.817114    1.205265
     28          8    20001024        7.468845   -0.364169    0.352089
     29          1    20001035        5.346877   -3.009672    1.737160
     30          1    20001035        3.640683   -3.054653    1.321765
     31          1    20001035        4.147251   -2.345095    2.849970
     32          1    20001029        4.841584   -0.417937    1.746482
     33          1    20001034        4.935545   -0.302679   -2.760174
     34          1    20001034        5.682022    1.271645   -2.488274
     35          1    20001034        6.516070   -0.213226   -2.029820
     36          1    20001034        3.844009    2.144479   -1.104441
     37          1    20001034        3.246490    1.302796    0.294649
     38          1    20001034        1.789037    1.488933   -1.801892
     39          1    20001034        2.796183    0.286931   -2.544765
     40          1    20001034        2.093345   -1.377579   -0.851189
     41          1    20001034        0.760489   -0.693643   -1.717489
     42          1    20001033        1.517414   -0.208554    1.199296
     43          1    20001033       -0.623712    0.584809    1.550730
     44          1    20001034       -0.958498    0.715289   -1.487711
     45          1    20001034       -1.874606    1.580818   -0.292582
     46          1    20001034       -3.162324   -0.212683   -1.390393
     47          1    20001034       -2.039061   -1.410134   -0.840366
     48          1    20001034       -2.755362   -0.057136    1.527812
     49          1    20001034       -3.260312   -1.650707    1.039372
     50          1    20001034       -4.778864    0.162332    2.895795
     51          1    20001034       -5.143642   -1.485338    2.439468
     52          1    20001034       -6.358643   -0.216688    2.239254
     53          1    20001029       -4.019801    1.662602    0.017250
     54          1    20001034       -6.714338    3.918844    0.008422
     55          1    20001034       -5.763997    3.248214   -1.311879
     56          1    20001034       -4.947977    3.862662    0.122260
     57          1    20001029       -6.330900   -2.219221    0.838393
     58          1    20001035       -7.187224   -3.654206   -0.750205
     59          1    20001035       -6.279193   -2.826594   -2.011422
     60          1    20001035       -7.770781   -2.122022   -1.408291
     61          1    20001029        5.577403    2.091077    0.299669
     62          1    20001034        8.688868    1.346020    1.764769
     63          1    20001034        7.310638    2.452032    1.862724
     64          1    20001034        8.335924    2.441009    0.435097
 ---------------------------------------------------------------------

 SCF Done:  E(RHF) =  -1295.61612904     A.U. after   14 cycles

 The electronic state is 1-A.
 Alpha  occ. eigenvalues --  -20.53691 -20.52219 -20.51918 -20.51888 -15.59654
 Alpha  occ. eigenvalues --  -15.58092 -15.57693 -15.57597 -11.36009 -11.34410
 Alpha  occ. eigenvalues --  -11.33927 -11.33903 -11.29083 -11.28616 -11.25176
 Alpha  occ. eigenvalues --  -11.24957 -11.24389 -11.24066 -11.23188 -11.22773
 Alpha  occ. eigenvalues --  -11.22715 -11.22684 -11.22305 -11.22102 -11.21846
 Alpha  occ. eigenvalues --  -11.21742 -11.21710 -11.20905  -1.40629  -1.39604
 Alpha  occ. eigenvalues --   -1.38775  -1.38337  -1.25482  -1.23714  -1.22821
 Alpha  occ. eigenvalues --   -1.22142  -1.10825  -1.09289  -1.07264  -1.04281
 Alpha  occ. eigenvalues --   -1.01247  -0.99404  -0.98853  -0.95578  -0.95234
 Alpha  occ. eigenvalues --   -0.94679  -0.92217  -0.87356  -0.85941  -0.82880
 Alpha  occ. eigenvalues --   -0.81417  -0.79615  -0.78699  -0.77242  -0.77035
 Alpha  occ. eigenvalues --   -0.71821  -0.71628  -0.71219  -0.69005  -0.67758
 Alpha  occ. eigenvalues --   -0.67196  -0.65916  -0.64688  -0.64112  -0.63666
 Alpha  occ. eigenvalues --   -0.62841  -0.62492  -0.61715  -0.61321  -0.61007
 Alpha  occ. eigenvalues --   -0.60851  -0.59974  -0.59563  -0.59147  -0.58456
 Alpha  occ. eigenvalues --   -0.58277  -0.57959  -0.57132  -0.56526  -0.56096
 Alpha  occ. eigenvalues --   -0.55734  -0.55120  -0.54983  -0.54596  -0.53720
 Alpha  occ. eigenvalues --   -0.53342  -0.53129  -0.52811  -0.52175  -0.51118
 Alpha  occ. eigenvalues --   -0.50792  -0.50590  -0.49838  -0.49383  -0.48644
 Alpha  occ. eigenvalues --   -0.48083  -0.46981  -0.46259  -0.44693  -0.42918
 Alpha  occ. eigenvalues --   -0.41998  -0.41607  -0.41198  -0.39343  -0.39089
 Alpha  occ. eigenvalues --   -0.38387  -0.38317  -0.34585
 Alpha virt. eigenvalues --    0.17324   0.18759   0.19280   0.19934   0.20210
 Alpha virt. eigenvalues --    0.20890   0.21667   0.23018   0.23431   0.23697
 Alpha virt. eigenvalues --    0.25138   0.25421   0.26379   0.26947   0.27739

 Mulliken atomic charges:
              1
     1  C   -0.279651
     2  N   -0.783389
     3  C    0.821909
     4  O   -0.628577
     5  C    0.102333
     6  C   -0.472762
     7  C   -0.334469
     8  C   -0.311665
     9  C   -0.373388
    10  C   -0.180515
    11  C   -0.174621
    12  C   -0.357732
    13  C   -0.351747
    14  C   -0.329827
    15  C    0.083086
    16  C   -0.509949
    17  N   -0.793453
    18  C    0.767112
    19  C   -0.596455
    20  O   -0.612940
    21  C    0.821954
    22  O   -0.637692
    23  N   -0.805109
    24  C   -0.275691
    25  N   -0.843083
    26  C    0.744549
    27  C   -0.588702
    28  O   -0.591795
    29  H    0.187092
    30  H    0.197806
    31  H    0.162720
    32  H    0.391512
    33  H    0.198668
    34  H    0.144364
    35  H    0.212607
    36  H    0.161695
    37  H    0.182218
    38  H    0.164826
    39  H    0.179881
    40  H    0.213045
    41  H    0.173381
    42  H    0.181240
    43  H    0.170732
    44  H    0.178400
    45  H    0.145624
    46  H    0.222213
    47  H    0.178611
    48  H    0.181116
    49  H    0.184023
    50  H    0.183419
    51  H    0.149416
    52  H    0.225839
    53  H    0.399038
    54  H    0.211584
    55  H    0.208938
    56  H    0.176159
    57  H    0.396356
    58  H    0.165609
    59  H    0.198622
    60  H    0.185331
    61  H    0.382713
    62  H    0.218712
    63  H    0.177297
    64  H    0.201464
 Sum of Mulliken atomic charges =   0.00000

 Dipole moment (field-independent basis, Debye):
    X=              1.8735    Y=              4.0854    Z=              3.7713  Tot=              5.8672
 Quadrupole moment (field-independent basis, Debye-Ang):
   XX=           -206.6087   YY=           -159.4534   ZZ=           -169.5147
   XY=             45.8401   XZ=              7.5124   YZ=             -7.6074

 Normal termination of Gaussian 09 at Thu Dec  5 19:25:07 2019.
