 Gaussian 09, Revision A.02,
 Gaussian 09:  EM64L-G09RevA.02 11-Jun-2009

 ---------------------------------
 #SP HF/6-31G* Geom=(ModRedundant)
 ---------------------------------

 ------------
 paramfit run
 ------------
 Symbolic Z-matrix:
 Charge =  0 Multiplicity = 1

                         Standard orientation:
 ---------------------------------------------------------------------
 Center     Atomic      Atomic             Coordinates (Angstroms)
 Number     Number       Type             X           Y           Z
 ---------------------------------------------------------------------
      1          6    20001001       -3.648180    2.888354    0.452593
      2          7    20001014       -4.027793    1.491951    0.509135
      3          6    20001002       -4.241956    0.803736   -0.636555
      4          8    20001024       -3.918619    1.225057   -1.712514
      5          6    90000001       -4.802691   -0.621567   -0.483347
      6          6    90000002       -5.414833   -1.077685   -1.811910
      7          6    90000002       -3.682706   -1.588571   -0.012030
      8          6    90000002       -2.440104   -1.781679   -0.899885
      9          6    90000002       -1.314043   -0.734342   -0.791683
     10          6    20001004       -0.764818   -0.564298    0.605355
     11          6    20001004        0.330845   -1.105824    1.112336
     12          6    90000002        1.303669   -2.029551    0.419449
     13          6    90000002        2.606660   -1.349675   -0.038316
     14          6    90000002        3.408630   -0.759353    1.129278
     15          6    90000002        4.746042   -0.044119    0.806145
     16          6    90000002        5.311164    0.503458    2.126845
     17          7    20001014        5.672192   -1.021275    0.250319
     18          6    20001002        6.881335   -0.647523   -0.260895
     19          6    20001001        7.554305   -1.685129   -1.129970
     20          8    20001024        7.378854    0.421756   -0.041215
     21          6    20001002        4.479455    1.035418   -0.267286
     22          8    20001024        4.447957    0.737962   -1.431098
     23          7    20001014        4.186350    2.281616    0.162905
     24          6    20001001        3.976033    3.351919   -0.790205
     25          7    20001014       -5.807462   -0.664769    0.589034
     26          6    20001002       -6.954710    0.072412    0.581350
     27          6    20001001       -8.009371   -0.369269    1.574691
     28          8    20001024       -7.116038    1.009628   -0.147854
     29          1    20001035       -4.442432    3.506167    0.049578
     30          1    20001035       -2.773656    3.003867   -0.170775
     31          1    20001035       -3.410585    3.222813    1.454610
     32          1    20001029       -4.529321    1.187772    1.310528
     33          1    20001034       -4.692174   -1.029884   -2.612168
     34          1    20001034       -5.768956   -2.099613   -1.714465
     35          1    20001034       -6.245231   -0.441609   -2.081674
     36          1    20001034       -4.158741   -2.561504    0.088030
     37          1    20001034       -3.374069   -1.296933    0.986954
     38          1    20001034       -2.016373   -2.744653   -0.630163
     39          1    20001034       -2.736729   -1.864049   -1.940367
     40          1    20001034       -1.662469    0.224121   -1.154054
     41          1    20001034       -0.525084   -1.041496   -1.469204
     42          1    20001033       -1.341812    0.078956    1.249882
     43          1    20001033        0.571170   -0.865646    2.136211
     44          1    20001034        0.837610   -2.486262   -0.445230
     45          1    20001034        1.549033   -2.845645    1.097964
     46          1    20001034        3.193991   -2.088936   -0.575822
     47          1    20001034        2.372499   -0.575522   -0.757124
     48          1    20001034        3.643434   -1.547796    1.841148
     49          1    20001034        2.783694   -0.045062    1.652338
     50          1    20001034        5.559683   -0.332111    2.770773
     51          1    20001034        4.576249    1.108010    2.648187
     52          1    20001034        6.207534    1.083708    1.966935
     53          1    20001029        5.248380   -1.794939   -0.208528
     54          1    20001034        8.612307   -1.476112   -1.174744
     55          1    20001034        7.142907   -1.616144   -2.132525
     56          1    20001034        7.393346   -2.692581   -0.761847
     57          1    20001029        4.454134    2.539128    1.083388
     58          1    20001035        3.637082    4.229308   -0.255207
     59          1    20001035        3.220019    3.060899   -1.504610
     60          1    20001035        4.884934    3.593128   -1.331936
     61          1    20001029       -5.822047   -1.500398    1.130383
     62          1    20001034       -8.673212    0.460038    1.771007
     63          1    20001034       -7.576235   -0.719010    2.505080
     64          1    20001034       -8.587464   -1.180192    1.143398
 ---------------------------------------------------------------------

 SCF Done:  E(RHF) =  -1295.62187423     A.U. after   14 cycles

 The electronic state is 1-A.
 Alpha  occ. eigenvalues --  -20.53644 -20.52022 -20.51838 -20.51564 -15.59601
 Alpha  occ. eigenvalues --  -15.57870 -15.57530 -15.57493 -11.35963 -11.34226
 Alpha  occ. eigenvalues --  -11.33851 -11.33653 -11.29016 -11.28539 -11.24937
 Alpha  occ. eigenvalues --  -11.24900 -11.24356 -11.23989 -11.23362 -11.22674
 Alpha  occ. eigenvalues --  -11.22523 -11.22487 -11.22279 -11.22201 -11.22002
 Alpha  occ. eigenvalues --  -11.21784 -11.21561 -11.20841  -1.40580  -1.39345
 Alpha  occ. eigenvalues --   -1.38696  -1.38070  -1.25425  -1.23516  -1.22581
 Alpha  occ. eigenvalues --   -1.22076  -1.10740  -1.09241  -1.07164  -1.04199
 Alpha  occ. eigenvalues --   -1.01214  -0.99305  -0.98711  -0.95516  -0.95106
 Alpha  occ. eigenvalues --   -0.94548  -0.92171  -0.87248  -0.85681  -0.82820
 Alpha  occ. eigenvalues --   -0.81320  -0.79455  -0.78750  -0.77175  -0.76844
 Alpha  occ. eigenvalues --   -0.71908  -0.71265  -0.71068  -0.68935  -0.67994
 Alpha  occ. eigenvalues --   -0.66615  -0.65839  -0.64527  -0.63947  -0.63762
 Alpha  occ. eigenvalues --   -0.62582  -0.62303  -0.61783  -0.61366  -0.61113
 Alpha  occ. eigenvalues --   -0.60904  -0.59893  -0.59303  -0.58650  -0.58412
 Alpha  occ. eigenvalues --   -0.58249  -0.57807  -0.56574  -0.56457  -0.56140
 Alpha  occ. eigenvalues --   -0.55442  -0.54821  -0.54713  -0.54555  -0.54010
 Alpha  occ. eigenvalues --   -0.53110  -0.52796  -0.52455  -0.52022  -0.51563
 Alpha  occ. eigenvalues --   -0.51021  -0.50304  -0.49753  -0.49228  -0.48473
 Alpha  occ. eigenvalues --   -0.48320  -0.46906  -0.46396  -0.44492  -0.42860
 Alpha  occ. eigenvalues --   -0.41932  -0.41469  -0.41034  -0.39279  -0.38814
 Alpha  occ. eigenvalues --   -0.38312  -0.38236  -0.34495
 Alpha virt. eigenvalues --    0.17313   0.18805   0.19653   0.19996   0.20237
 Alpha virt. eigenvalues --    0.21604   0.22054   0.23130   0.23278   0.23925
 Alpha virt. eigenvalues --    0.25323   0.25698   0.26551   0.26975   0.27766

 Mulliken atomic charges:
              1
     1  C   -0.279649
     2  N   -0.783402
     3  C    0.821885
     4  O   -0.628019
     5  C    0.102325
     6  C   -0.472797
     7  C   -0.334270
     8  C   -0.312001
     9  C   -0.373814
    10  C   -0.178421
    11  C   -0.177620
    12  C   -0.351658
    13  C   -0.314377
    14  C   -0.330009
    15  C    0.092269
    16  C   -0.509581
    17  N   -0.788287
    18  C    0.767385
    19  C   -0.595614
    20  O   -0.613927
    21  C    0.819892
    22  O   -0.639092
    23  N   -0.805305
    24  C   -0.275654
    25  N   -0.843076
    26  C    0.744560
    27  C   -0.588671
    28  O   -0.591759
    29  H    0.187000
    30  H    0.198400
    31  H    0.162044
    32  H    0.391284
    33  H    0.199027
    34  H    0.144059
    35  H    0.212494
    36  H    0.161318
    37  H    0.182062
    38  H    0.164399
    39  H    0.179865
    40  H    0.213625
    41  H    0.175547
    42  H    0.180298
    43  H    0.169184
    44  H    0.176883
    45  H    0.160108
    46  H    0.146883
    47  H    0.205903
    48  H    0.173556
    49  H    0.184354
    50  H    0.183527
    51  H    0.148158
    52  H    0.226613
    53  H    0.390340
    54  H    0.211071
    55  H    0.209583
    56  H    0.176255
    57  H    0.395203
    58  H    0.164660
    59  H    0.200311
    60  H    0.184951
    61  H    0.382599
    62  H    0.218598
    63  H    0.177160
    64  H    0.201367
 Sum of Mulliken atomic charges =   0.00000

 Dipole moment (field-independent basis, Debye):
    X=             -2.7317    Y=             -4.4988    Z=              6.6175  Tot=              8.4553
 Quadrupole moment (field-independent basis, Debye-Ang):
   XX=           -190.8357   YY=           -156.8418   ZZ=           -173.4658
   XY=             10.7529   XZ=            -18.4914   YZ=             10.3368

 Normal termination of Gaussian 09 at Thu Dec  5 18:22:08 2019.
