 Gaussian 09, Revision A.02,
 Gaussian 09:  EM64L-G09RevA.02 11-Jun-2009

 ---------------------------------
 #SP HF/6-31G* Geom=(ModRedundant)
 ---------------------------------

 ------------
 paramfit run
 ------------
 Symbolic Z-matrix:
 Charge =  0 Multiplicity = 1

                         Standard orientation:
 ---------------------------------------------------------------------
 Center     Atomic      Atomic             Coordinates (Angstroms)
 Number     Number       Type             X           Y           Z
 ---------------------------------------------------------------------
      1          6    20001001        3.981238   -0.734710    2.952339
      2          7    20001014        3.925020   -0.171260    1.619444
      3          6    20001002        4.220819   -0.942840    0.547401
      4          8    20001024        4.313889   -2.137047    0.617778
      5          6    90000001        4.299465   -0.224081   -0.811491
      6          6    90000002        5.075336   -1.092646   -1.807213
      7          6    90000002        2.871133    0.096629   -1.329771
      8          6    90000002        1.892859   -1.063172   -1.589537
      9          6    90000002        1.118271   -1.629328   -0.382841
     10          6    20001004        0.302672   -0.598962    0.362427
     11          6    20001004       -0.992458   -0.355752    0.243077
     12          6    90000002       -1.976367   -1.047983   -0.669333
     13          6    90000002       -2.874159   -2.081571    0.034394
     14          6    90000002       -3.746953   -1.458332    1.131990
     15          6    90000002       -4.382908   -0.071093    0.856711
     16          6    90000002       -5.247998    0.293420    2.074168
     17          7    20001014       -3.314629    0.908093    0.710068
     18          6    20001002       -3.571229    2.190279    0.318643
     19          6    20001001       -2.363057    2.966922   -0.152475
     20          8    20001024       -4.669840    2.671472    0.344109
     21          6    20001002       -5.160498   -0.142623   -0.477066
     22          8    20001024       -4.585321    0.001010   -1.522279
     23          7    20001014       -6.469162   -0.471007   -0.417522
     24          6    20001001       -7.268352   -0.505936   -1.625113
     25          7    20001014        4.944239    1.088537   -0.660721
     26          6    20001002        6.215191    1.258561   -0.196562
     27          6    20001001        6.814059    2.626737   -0.448690
     28          8    20001024        6.813729    0.395217    0.380093
     29          1    20001035        4.992522   -1.005361    3.233414
     30          1    20001035        3.363137   -1.619188    3.001044
     31          1    20001035        3.600717   -0.002577    3.653437
     32          1    20001029        4.099623    0.802108    1.528044
     33          1    20001034        4.623675   -2.067472   -1.910406
     34          1    20001034        5.090542   -0.604399   -2.777069
     35          1    20001034        6.091316   -1.236188   -1.469417
     36          1    20001034        3.012265    0.614157   -2.276062
     37          1    20001034        2.413598    0.814287   -0.656043
     38          1    20001034        1.161139   -0.694174   -2.302309
     39          1    20001034        2.408740   -1.880147   -2.083290
     40          1    20001034        1.802608   -2.105629    0.307220
     41          1    20001034        0.474134   -2.417267   -0.757106
     42          1    20001033        0.853689   -0.004163    1.072855
     43          1    20001033       -1.407603    0.421273    0.865690
     44          1    20001034       -1.453802   -1.546579   -1.476670
     45          1    20001034       -2.605672   -0.291771   -1.136999
     46          1    20001034       -3.488982   -2.556728   -0.724944
     47          1    20001034       -2.256778   -2.866233    0.451499
     48          1    20001034       -3.161962   -1.355246    2.043413
     49          1    20001034       -4.557455   -2.140891    1.359034
     50          1    20001034       -4.600847    0.419578    2.934319
     51          1    20001034       -5.949891   -0.499954    2.309293
     52          1    20001034       -5.785938    1.216628    1.919097
     53          1    20001029       -2.444878    0.543647    0.394750
     54          1    20001034       -2.572266    4.023412   -0.080909
     55          1    20001034       -2.176336    2.718528   -1.192938
     56          1    20001034       -1.474627    2.727836    0.421904
     57          1    20001029       -6.949699   -0.344268    0.441741
     58          1    20001035       -8.244625   -0.904261   -1.381907
     59          1    20001035       -6.797900   -1.147696   -2.355487
     60          1    20001035       -7.383979    0.481522   -2.060211
     61          1    20001029        4.584835    1.812781   -1.241967
     62          1    20001034        7.611791    2.794710    0.260098
     63          1    20001034        6.078235    3.418681   -0.365394
     64          1    20001034        7.230357    2.654169   -1.450561
 ---------------------------------------------------------------------

 SCF Done:  E(RHF) =  -1295.55960254     A.U. after   14 cycles

 The electronic state is 1-A.
 Alpha  occ. eigenvalues --  -20.53717 -20.52171 -20.51998 -20.51874 -15.59691
 Alpha  occ. eigenvalues --  -15.58322 -15.57682 -15.55871 -11.36032 -11.34187
 Alpha  occ. eigenvalues --  -11.34034 -11.34003 -11.29146 -11.28512 -11.25382
 Alpha  occ. eigenvalues --  -11.25026 -11.24389 -11.24160 -11.23245 -11.22888
 Alpha  occ. eigenvalues --  -11.22764 -11.22649 -11.22245 -11.22214 -11.21900
 Alpha  occ. eigenvalues --  -11.21792 -11.21131 -11.20948  -1.40659  -1.39776
 Alpha  occ. eigenvalues --   -1.38851  -1.38296  -1.25527  -1.24134  -1.23097
 Alpha  occ. eigenvalues --   -1.22219  -1.10931  -1.09109  -1.08014  -1.04534
 Alpha  occ. eigenvalues --   -1.01303  -0.99653  -0.98825  -0.95650  -0.95459
 Alpha  occ. eigenvalues --   -0.94743  -0.92187  -0.88021  -0.86398  -0.84353
 Alpha  occ. eigenvalues --   -0.81813  -0.79312  -0.78723  -0.78230  -0.77314
 Alpha  occ. eigenvalues --   -0.73887  -0.71302  -0.70842  -0.68923  -0.67562
 Alpha  occ. eigenvalues --   -0.66050  -0.65490  -0.65053  -0.64305  -0.63870
 Alpha  occ. eigenvalues --   -0.62802  -0.62548  -0.62152  -0.61484  -0.61128
 Alpha  occ. eigenvalues --   -0.60766  -0.60130  -0.59859  -0.58842  -0.58719
 Alpha  occ. eigenvalues --   -0.58294  -0.58152  -0.57412  -0.56969  -0.56022
 Alpha  occ. eigenvalues --   -0.55318  -0.55252  -0.54858  -0.54653  -0.53612
 Alpha  occ. eigenvalues --   -0.53064  -0.52931  -0.52463  -0.52069  -0.51901
 Alpha  occ. eigenvalues --   -0.51138  -0.50044  -0.49483  -0.49405  -0.48330
 Alpha  occ. eigenvalues --   -0.48168  -0.47028  -0.46368  -0.44543  -0.42958
 Alpha  occ. eigenvalues --   -0.42054  -0.41870  -0.40809  -0.39400  -0.39159
 Alpha  occ. eigenvalues --   -0.38466  -0.37694  -0.34898
 Alpha virt. eigenvalues --    0.16486   0.18730   0.19368   0.19855   0.20105
 Alpha virt. eigenvalues --    0.21102   0.22091   0.22950   0.23830   0.24607
 Alpha virt. eigenvalues --    0.25481   0.26185   0.26426   0.27078   0.27950

 Mulliken atomic charges:
              1
     1  C   -0.279875
     2  N   -0.783971
     3  C    0.821844
     4  O   -0.628620
     5  C    0.102367
     6  C   -0.472865
     7  C   -0.334502
     8  C   -0.313789
     9  C   -0.374773
    10  C   -0.217687
    11  C   -0.178913
    12  C   -0.451356
    13  C   -0.296617
    14  C   -0.332056
    15  C    0.080221
    16  C   -0.508932
    17  N   -0.842225
    18  C    0.770721
    19  C   -0.604334
    20  O   -0.619415
    21  C    0.831389
    22  O   -0.641259
    23  N   -0.806121
    24  C   -0.276316
    25  N   -0.843295
    26  C    0.744466
    27  C   -0.588727
    28  O   -0.591798
    29  H    0.187624
    30  H    0.197468
    31  H    0.163056
    32  H    0.391701
    33  H    0.198429
    34  H    0.145061
    35  H    0.212855
    36  H    0.163504
    37  H    0.180152
    38  H    0.169411
    39  H    0.181107
    40  H    0.213351
    41  H    0.176832
    42  H    0.183499
    43  H    0.202893
    44  H    0.182725
    45  H    0.275724
    46  H    0.176695
    47  H    0.172549
    48  H    0.185332
    49  H    0.179273
    50  H    0.184348
    51  H    0.147549
    52  H    0.225780
    53  H    0.416022
    54  H    0.210922
    55  H    0.206928
    56  H    0.176742
    57  H    0.397782
    58  H    0.166253
    59  H    0.197698
    60  H    0.186024
    61  H    0.383020
    62  H    0.218848
    63  H    0.177519
    64  H    0.201765
 Sum of Mulliken atomic charges =   0.00000

 Dipole moment (field-independent basis, Debye):
    X=             -0.9968    Y=              2.7610    Z=             -0.0590  Tot=              2.9360
 Quadrupole moment (field-independent basis, Debye-Ang):
   XX=           -180.8761   YY=           -176.4275   ZZ=           -166.1784
   XY=             46.1838   XZ=            -17.0948   YZ=             -0.4172

 Normal termination of Gaussian 09 at Thu Dec  5 19:42:42 2019.
