 Gaussian 09, Revision A.02,
 Gaussian 09:  EM64L-G09RevA.02 11-Jun-2009

 ---------------------------------
 #SP HF/6-31G* Geom=(ModRedundant)
 ---------------------------------

 ------------
 paramfit run
 ------------
 Symbolic Z-matrix:
 Charge =  0 Multiplicity = 1

                         Standard orientation:
 ---------------------------------------------------------------------
 Center     Atomic      Atomic             Coordinates (Angstroms)
 Number     Number       Type             X           Y           Z
 ---------------------------------------------------------------------
      1          6    20001001        2.884817    2.827603    0.033978
      2          7    20001014        3.412866    1.504385   -0.225833
      3          6    20001002        3.716263    0.683892    0.807052
      4          8    20001024        3.364049    0.905731    1.932431
      5          6    90000001        4.426146   -0.633826    0.447786
      6          6    90000002        5.102486   -1.209291    1.696483
      7          6    90000002        3.411266   -1.638277   -0.162705
      8          6    90000002        2.209356   -2.093622    0.684473
      9          6    90000002        0.974927   -1.171188    0.728480
     10          6    20001004        0.391214   -0.860123   -0.629752
     11          6    20001004       -0.646142   -1.438368   -1.213089
     12          6    90000002       -1.503327   -2.554118   -0.665287
     13          6    90000002       -2.865926   -2.094944   -0.115696
     14          6    90000002       -3.743288   -1.431779   -1.185912
     15          6    90000002       -4.569443   -0.183972   -0.779597
     16          6    90000002       -5.302231    0.317125   -2.034736
     17          7    20001014       -5.545553   -0.581153    0.225882
     18          6    20001002       -6.316665    0.339786    0.874199
     19          6    20001001       -6.989921   -0.163443    2.130499
     20          8    20001024       -6.454687    1.465228    0.482445
     21          6    20001002       -3.614723    0.852414   -0.144666
     22          8    20001024       -3.315753    0.769468    1.016225
     23          7    20001014       -3.062563    1.773443   -0.963693
     24          6    20001001       -2.199330    2.804573   -0.425363
     25          7    20001014        5.414735   -0.409898   -0.617098
     26          6    20001002        6.475230    0.439244   -0.498863
     27          6    20001001        7.557735    0.265295   -1.543872
     28          8    20001024        6.544005    1.271937    0.360225
     29          1    20001035        3.612856    3.463073    0.524985
     30          1    20001035        2.011634    2.754559    0.665595
     31          1    20001035        2.598494    3.276739   -0.908704
     32          1    20001029        3.933293    1.377128   -1.062042
     33          1    20001034        4.390052   -1.358127    2.493490
     34          1    20001034        5.564005   -2.161133    1.451055
     35          1    20001034        5.862629   -0.532462    2.058437
     36          1    20001034        3.988614   -2.528233   -0.403265
     37          1    20001034        3.059014   -1.239456   -1.108824
     38          1    20001034        1.888907   -3.047406    0.275540
     39          1    20001034        2.527538   -2.294057    1.702294
     40          1    20001034        1.222295   -0.243599    1.228232
     41          1    20001034        0.233401   -1.658359    1.351888
     42          1    20001033        0.886041   -0.070484   -1.171720
     43          1    20001033       -0.925253   -1.079040   -2.191221
     44          1    20001034       -0.978549   -3.078426    0.124128
     45          1    20001034       -1.668071   -3.284309   -1.456662
     46          1    20001034       -3.362092   -2.964488    0.306308
     47          1    20001034       -2.707209   -1.413096    0.709363
     48          1    20001034       -4.452699   -2.159953   -1.573251
     49          1    20001034       -3.113197   -1.139577   -2.017749
     50          1    20001034       -6.018216   -0.436080   -2.342355
     51          1    20001034       -4.612768    0.465928   -2.859285
     52          1    20001034       -5.839174    1.234134   -1.843619
     53          1    20001029       -5.292965   -1.371316    0.774110
     54          1    20001034       -7.835091    0.468942    2.355970
     55          1    20001034       -6.281014   -0.102978    2.950815
     56          1    20001034       -7.316061   -1.193382    2.034360
     57          1    20001029       -3.505274    1.959462   -1.832436
     58          1    20001035       -1.768447    3.359024   -1.248676
     59          1    20001035       -1.404416    2.351785    0.148851
     60          1    20001035       -2.742097    3.487828    0.219867
     61          1    20001029        5.512397   -1.150894   -1.275076
     62          1    20001034        8.124905    1.181936   -1.615002
     63          1    20001034        7.152264    0.009868   -2.516446
     64          1    20001034        8.226306   -0.531772   -1.234841
 ---------------------------------------------------------------------

 SCF Done:  E(RHF) =  -1295.61696528     A.U. after   14 cycles

 The electronic state is 1-A.
 Alpha  occ. eigenvalues --  -20.53547 -20.51999 -20.51685 -20.51549 -15.59494
 Alpha  occ. eigenvalues --  -15.57808 -15.57502 -15.57405 -11.35868 -11.34192
 Alpha  occ. eigenvalues --  -11.33706 -11.33613 -11.28884 -11.28475 -11.24880
 Alpha  occ. eigenvalues --  -11.24802 -11.24280 -11.23835 -11.23185 -11.22466
 Alpha  occ. eigenvalues --  -11.22430 -11.22318 -11.21939 -11.21754 -11.21744
 Alpha  occ. eigenvalues --  -11.21741 -11.21251 -11.20721  -1.40480  -1.39333
 Alpha  occ. eigenvalues --   -1.38546  -1.38060  -1.25312  -1.23487  -1.22525
 Alpha  occ. eigenvalues --   -1.21952  -1.10537  -1.09113  -1.06998  -1.04015
 Alpha  occ. eigenvalues --   -1.01066  -0.99187  -0.98627  -0.95404  -0.94996
 Alpha  occ. eigenvalues --   -0.94428  -0.91997  -0.87133  -0.85614  -0.82667
 Alpha  occ. eigenvalues --   -0.81157  -0.79379  -0.78597  -0.77049  -0.76780
 Alpha  occ. eigenvalues --   -0.71898  -0.71136  -0.70884  -0.68811  -0.68057
 Alpha  occ. eigenvalues --   -0.66204  -0.65705  -0.64474  -0.63971  -0.63768
 Alpha  occ. eigenvalues --   -0.62518  -0.62221  -0.61654  -0.61168  -0.60832
 Alpha  occ. eigenvalues --   -0.60763  -0.59806  -0.59131  -0.58443  -0.58212
 Alpha  occ. eigenvalues --   -0.58163  -0.57729  -0.56729  -0.56522  -0.55887
 Alpha  occ. eigenvalues --   -0.55197  -0.54726  -0.54699  -0.54442  -0.54209
 Alpha  occ. eigenvalues --   -0.53225  -0.52630  -0.52421  -0.51736  -0.51128
 Alpha  occ. eigenvalues --   -0.50881  -0.50193  -0.49653  -0.48995  -0.48250
 Alpha  occ. eigenvalues --   -0.47875  -0.46683  -0.46469  -0.44220  -0.42747
 Alpha  occ. eigenvalues --   -0.41800  -0.41373  -0.40976  -0.39154  -0.38816
 Alpha  occ. eigenvalues --   -0.38179  -0.38018  -0.34202
 Alpha virt. eigenvalues --    0.17446   0.18898   0.19566   0.20050   0.20348
 Alpha virt. eigenvalues --    0.21568   0.22039   0.22620   0.23543   0.24044
 Alpha virt. eigenvalues --    0.25266   0.25745   0.26309   0.26550   0.27151

 Mulliken atomic charges:
              1
     1  C   -0.280084
     2  N   -0.783365
     3  C    0.821925
     4  O   -0.627063
     5  C    0.102311
     6  C   -0.472772
     7  C   -0.333878
     8  C   -0.312800
     9  C   -0.372218
    10  C   -0.174135
    11  C   -0.176255
    12  C   -0.347775
    13  C   -0.352226
    14  C   -0.327316
    15  C    0.085541
    16  C   -0.509823
    17  N   -0.786222
    18  C    0.766235
    19  C   -0.594934
    20  O   -0.613511
    21  C    0.826655
    22  O   -0.636717
    23  N   -0.804758
    24  C   -0.276286
    25  N   -0.843064
    26  C    0.744569
    27  C   -0.588620
    28  O   -0.591737
    29  H    0.187266
    30  H    0.199531
    31  H    0.160578
    32  H    0.390927
    33  H    0.199348
    34  H    0.143646
    35  H    0.212223
    36  H    0.160623
    37  H    0.181600
    38  H    0.163558
    39  H    0.179155
    40  H    0.215037
    41  H    0.176930
    42  H    0.178483
    43  H    0.167226
    44  H    0.173980
    45  H    0.159290
    46  H    0.151490
    47  H    0.230818
    48  H    0.180579
    49  H    0.178392
    50  H    0.183741
    51  H    0.147000
    52  H    0.226334
    53  H    0.390507
    54  H    0.210991
    55  H    0.209887
    56  H    0.176537
    57  H    0.394305
    58  H    0.160696
    59  H    0.203759
    60  H    0.184888
    61  H    0.382413
    62  H    0.218416
    63  H    0.176963
    64  H    0.201209
 Sum of Mulliken atomic charges =   0.00000

 Dipole moment (field-independent basis, Debye):
    X=              1.7111    Y=             -4.7568    Z=             -6.9861  Tot=              8.6233
 Quadrupole moment (field-independent basis, Debye-Ang):
   XX=           -171.2982   YY=           -165.7663   ZZ=           -170.3763
   XY=              0.4653   XZ=            -22.4244   YZ=            -12.4120

 Normal termination of Gaussian 09 at Thu Dec  5 18:45:11 2019.
