 Gaussian 09, Revision A.02,
 Gaussian 09:  EM64L-G09RevA.02 11-Jun-2009

 ---------------------------------
 #SP HF/6-31G* Geom=(ModRedundant)
 ---------------------------------

 ------------
 paramfit run
 ------------
 Symbolic Z-matrix:
 Charge =  0 Multiplicity = 1

                         Standard orientation:
 ---------------------------------------------------------------------
 Center     Atomic      Atomic             Coordinates (Angstroms)
 Number     Number       Type             X           Y           Z
 ---------------------------------------------------------------------
      1          6    20001001        3.080122    2.848406   -0.056773
      2          7    20001014        3.577099    1.506895   -0.281735
      3          6    20001002        3.853802    0.703969    0.772236
      4          8    20001024        3.500144    0.960976    1.889652
      5          6    90000001        4.533308   -0.638844    0.448957
      6          6    90000002        5.187512   -1.200873    1.715442
      7          6    90000002        3.497871   -1.632408   -0.144593
      8          6    90000002        2.279880   -2.038040    0.704877
      9          6    90000002        1.068244   -1.084949    0.718735
     10          6    20001004        0.500822   -0.792027   -0.650391
     11          6    20001004       -0.546779   -1.358439   -1.226990
     12          6    90000002       -1.434521   -2.439614   -0.658899
     13          6    90000002       -2.788819   -1.934391   -0.129568
     14          6    90000002       -3.642936   -1.275569   -1.221059
     15          6    90000002       -4.620108   -0.147724   -0.799458
     16          6    90000002       -5.300073    0.378536   -2.073879
     17          7    20001014       -5.626199   -0.713644    0.088825
     18          6    20001002       -6.534522    0.076041    0.732564
     19          6    20001001       -7.248996   -0.586046    1.888407
     20          8    20001024       -6.754800    1.210562    0.410874
     21          6    20001002       -3.827327    0.921590   -0.014098
     22          8    20001024       -3.612604    0.776468    1.159257
     23          7    20001014       -3.309189    1.952421   -0.716169
     24          6    20001001       -2.599111    3.015415   -0.034969
     25          7    20001014        5.533715   -0.464449   -0.614153
     26          6    20001002        6.614002    0.361105   -0.508741
     27          6    20001001        7.698392    0.136031   -1.541968
     28          8    20001024        6.697869    1.212014    0.330938
     29          1    20001035        3.820486    3.477374    0.424070
     30          1    20001035        2.201491    2.811712    0.570431
     31          1    20001035        2.810800    3.281913   -1.011702
     32          1    20001029        4.099440    1.347167   -1.111152
     33          1    20001034        4.466685   -1.313318    2.510865
     34          1    20001034        5.627018   -2.169256    1.495655
     35          1    20001034        5.961790   -0.534415    2.066514
     36          1    20001034        4.054659   -2.541654   -0.360182
     37          1    20001034        3.161426   -1.247657   -1.102221
     38          1    20001034        1.938640   -2.993145    0.316358
     39          1    20001034        2.586696   -2.221986    1.729280
     40          1    20001034        1.335218   -0.152084    1.198165
     41          1    20001034        0.311101   -1.538940    1.348386
     42          1    20001033        1.018272   -0.027786   -1.207432
     43          1    20001033       -0.810877   -1.015704   -2.215194
     44          1    20001034       -0.927713   -2.957708    0.146203
     45          1    20001034       -1.612229   -3.184129   -1.433954
     46          1    20001034       -3.308824   -2.781303    0.309419
     47          1    20001034       -2.618535   -1.237244    0.680259
     48          1    20001034       -4.242819   -2.035167   -1.717734
     49          1    20001034       -2.982912   -0.860354   -1.973598
     50          1    20001034       -5.910137   -0.412789   -2.493648
     51          1    20001034       -4.567227    0.656517   -2.824242
     52          1    20001034       -5.940221    1.222502   -1.864901
     53          1    20001029       -5.338356   -1.516852    0.599428
     54          1    20001034       -8.168737   -0.056522    2.085235
     55          1    20001034       -6.615725   -0.523131    2.768258
     56          1    20001034       -7.460841   -1.631563    1.692454
     57          1    20001029       -3.699601    2.163212   -1.604119
     58          1    20001035       -2.163853    3.671277   -0.777476
     59          1    20001035       -1.809509    2.596504    0.571388
     60          1    20001035       -3.256675    3.591174    0.608354
     61          1    20001029        5.617232   -1.223008   -1.253809
     62          1    20001034        8.288351    1.036602   -1.630813
     63          1    20001034        7.292831   -0.132414   -2.510992
     64          1    20001034        8.345234   -0.669571   -1.209700
 ---------------------------------------------------------------------

 SCF Done:  E(RHF) =  -1295.61815988     A.U. after   14 cycles

 The electronic state is 1-A.
 Alpha  occ. eigenvalues --  -20.53580 -20.52004 -20.51738 -20.51573 -15.59530
 Alpha  occ. eigenvalues --  -15.57835 -15.57494 -15.57448 -11.35900 -11.34196
 Alpha  occ. eigenvalues --  -11.33756 -11.33644 -11.28928 -11.28487 -11.24889
 Alpha  occ. eigenvalues --  -11.24838 -11.24306 -11.23886 -11.23204 -11.22537
 Alpha  occ. eigenvalues --  -11.22441 -11.22366 -11.22028 -11.21835 -11.21822
 Alpha  occ. eigenvalues --  -11.21747 -11.21358 -11.20760  -1.40514  -1.39352
 Alpha  occ. eigenvalues --   -1.38598  -1.38082  -1.25350  -1.23487  -1.22552
 Alpha  occ. eigenvalues --   -1.21995  -1.10598  -1.09146  -1.07046  -1.04066
 Alpha  occ. eigenvalues --   -1.01107  -0.99221  -0.98646  -0.95444  -0.95021
 Alpha  occ. eigenvalues --   -0.94464  -0.92050  -0.87169  -0.85629  -0.82717
 Alpha  occ. eigenvalues --   -0.81198  -0.79390  -0.78644  -0.77092  -0.76804
 Alpha  occ. eigenvalues --   -0.71916  -0.71176  -0.70935  -0.68855  -0.68050
 Alpha  occ. eigenvalues --   -0.66289  -0.65748  -0.64515  -0.63980  -0.63814
 Alpha  occ. eigenvalues --   -0.62542  -0.62244  -0.61692  -0.61217  -0.60873
 Alpha  occ. eigenvalues --   -0.60843  -0.59839  -0.59173  -0.58475  -0.58274
 Alpha  occ. eigenvalues --   -0.58193  -0.57753  -0.56691  -0.56545  -0.55944
 Alpha  occ. eigenvalues --   -0.55255  -0.54740  -0.54664  -0.54488  -0.54218
 Alpha  occ. eigenvalues --   -0.53203  -0.52682  -0.52434  -0.51736  -0.51275
 Alpha  occ. eigenvalues --   -0.50932  -0.50257  -0.49694  -0.49063  -0.48292
 Alpha  occ. eigenvalues --   -0.47964  -0.46758  -0.46429  -0.44286  -0.42785
 Alpha  occ. eigenvalues --   -0.41845  -0.41405  -0.40991  -0.39196  -0.38825
 Alpha  occ. eigenvalues --   -0.38225  -0.38071  -0.34320
 Alpha virt. eigenvalues --    0.17393   0.18866   0.19541   0.20053   0.20300
 Alpha virt. eigenvalues --    0.21579   0.22148   0.23008   0.23456   0.24002
 Alpha virt. eigenvalues --    0.25249   0.25781   0.26475   0.26637   0.27420

 Mulliken atomic charges:
              1
     1  C   -0.279510
     2  N   -0.783348
     3  C    0.821912
     4  O   -0.627415
     5  C    0.102311
     6  C   -0.472791
     7  C   -0.334031
     8  C   -0.312491
     9  C   -0.372961
    10  C   -0.175536
    11  C   -0.177358
    12  C   -0.347507
    13  C   -0.345817
    14  C   -0.328651
    15  C    0.088822
    16  C   -0.509794
    17  N   -0.787148
    18  C    0.766583
    19  C   -0.595019
    20  O   -0.613662
    21  C    0.822925
    22  O   -0.637287
    23  N   -0.803891
    24  C   -0.275760
    25  N   -0.843069
    26  C    0.744565
    27  C   -0.588637
    28  O   -0.591752
    29  H    0.187085
    30  H    0.198702
    31  H    0.161134
    32  H    0.391056
    33  H    0.199272
    34  H    0.143789
    35  H    0.212314
    36  H    0.160876
    37  H    0.181773
    38  H    0.163936
    39  H    0.179450
    40  H    0.214311
    41  H    0.176854
    42  H    0.179183
    43  H    0.167378
    44  H    0.174995
    45  H    0.159270
    46  H    0.147553
    47  H    0.229732
    48  H    0.178814
    49  H    0.179482
    50  H    0.183733
    51  H    0.147324
    52  H    0.226367
    53  H    0.390740
    54  H    0.210951
    55  H    0.209785
    56  H    0.176490
    57  H    0.394710
    58  H    0.162229
    59  H    0.202775
    60  H    0.185005
    61  H    0.382482
    62  H    0.218470
    63  H    0.177032
    64  H    0.201268
 Sum of Mulliken atomic charges =   0.00000

 Dipole moment (field-independent basis, Debye):
    X=              2.0697    Y=             -4.6321    Z=             -7.0194  Tot=              8.6610
 Quadrupole moment (field-independent basis, Debye-Ang):
   XX=           -175.7590   YY=           -163.0506   ZZ=           -171.8616
   XY=             -1.1053   XZ=            -21.2698   YZ=            -12.2081

 Normal termination of Gaussian 09 at Thu Dec  5 18:39:05 2019.
