 Gaussian 09, Revision A.02,
 Gaussian 09:  EM64L-G09RevA.02 11-Jun-2009

 ---------------------------------
 #SP HF/6-31G* Geom=(ModRedundant)
 ---------------------------------

 ------------
 paramfit run
 ------------
 Symbolic Z-matrix:
 Charge =  0 Multiplicity = 1

                         Standard orientation:
 ---------------------------------------------------------------------
 Center     Atomic      Atomic             Coordinates (Angstroms)
 Number     Number       Type             X           Y           Z
 ---------------------------------------------------------------------
      1          6    20001001       -4.214609    2.774404    1.182800
      2          7    20001014       -4.418066    1.370530    0.891269
      3          6    20001002       -4.594103    0.965416   -0.388185
      4          8    20001024       -4.369804    1.677778   -1.327321
      5          6    90000001       -4.969606   -0.513436   -0.591607
      6          6    90000002       -5.576273   -0.701657   -1.986013
      7          6    90000002       -3.721191   -1.414489   -0.388710
      8          6    90000002       -2.502403   -1.220377   -1.308771
      9          6    90000002       -1.509226   -0.096384   -0.952574
     10          6    20001004       -0.927139   -0.207927    0.437034
     11          6    20001004        0.246655   -0.712329    0.781334
     12          6    90000002        1.295323   -1.302812   -0.130466
     13          6    90000002        2.485256   -0.368944   -0.415977
     14          6    90000002        3.257055    0.012410    0.854380
     15          6    90000002        4.804479    0.074587    0.775255
     16          6    90000002        5.321906    0.534751    2.147832
     17          7    20001014        5.308466   -1.261883    0.489995
     18          6    20001002        6.628247   -1.484258    0.222069
     19          6    20001001        6.932673   -2.819230   -0.418229
     20          8    20001024        7.487348   -0.685503    0.473217
     21          6    20001002        5.200035    1.001477   -0.396553
     22          8    20001024        5.238028    0.575843   -1.519639
     23          7    20001014        5.394623    2.308516   -0.117688
     24          6    20001001        5.816598    3.221957   -1.159688
     25          7    20001014       -5.915987   -0.949510    0.445520
     26          6    20001002       -7.144028   -0.387349    0.634100
     27          6    20001001       -8.094489   -1.192971    1.495331
     28          8    20001024       -7.448919    0.672290    0.164690
     29          1    20001035       -5.094503    3.365152    0.955306
     30          1    20001035       -3.387503    3.152096    0.599733
     31          1    20001035       -3.978100    2.878344    2.234281
     32          1    20001029       -4.844823    0.815637    1.595724
     33          1    20001034       -4.898862   -0.364789   -2.755797
     34          1    20001034       -5.798504   -1.752743   -2.144341
     35          1    20001034       -6.488688   -0.130981   -2.079583
     36          1    20001034       -4.070191   -2.434863   -0.531031
     37          1    20001034       -3.409128   -1.341776    0.648406
     38          1    20001034       -1.953311   -2.157326   -1.293185
     39          1    20001034       -2.829853   -1.080312   -2.333726
     40          1    20001034       -1.986953    0.868841   -1.059718
     41          1    20001034       -0.717582   -0.122217   -1.693159
     42          1    20001033       -1.551035    0.176122    1.227840
     43          1    20001033        0.498303   -0.703985    1.830317
     44          1    20001034        0.852925   -1.587535   -1.077399
     45          1    20001034        1.666633   -2.222777    0.319409
     46          1    20001034        3.135593   -0.870332   -1.127347
     47          1    20001034        2.128500    0.522153   -0.915478
     48          1    20001034        3.015781   -0.691156    1.648305
     49          1    20001034        2.915810    0.985424    1.187762
     50          1    20001034        5.084133   -0.226817    2.881357
     51          1    20001034        4.836552    1.452497    2.463356
     52          1    20001034        6.392330    0.675873    2.143674
     53          1    20001029        4.679400   -1.857804    0.002280
     54          1    20001034        7.971273   -3.061923   -0.252484
     55          1    20001034        6.760400   -2.737450   -1.487227
     56          1    20001034        6.302780   -3.611788   -0.029040
     57          1    20001029        5.590422    2.567679    0.820294
     58          1    20001035        5.797184    4.229241   -0.764817
     59          1    20001035        5.137571    3.158680   -1.997271
     60          1    20001035        6.817816    2.995959   -1.512168
     61          1    20001029       -5.805781   -1.887772    0.760268
     62          1    20001034       -8.845921   -0.530567    1.899736
     63          1    20001034       -7.583460   -1.703206    2.304070
     64          1    20001034       -8.586638   -1.939473    0.880249
 ---------------------------------------------------------------------

 SCF Done:  E(RHF) =  -1295.61924267     A.U. after   14 cycles

 The electronic state is 1-A.
 Alpha  occ. eigenvalues --  -20.53672 -20.52157 -20.51886 -20.51730 -15.59632
 Alpha  occ. eigenvalues --  -15.57972 -15.57663 -15.57569 -11.35990 -11.34367
 Alpha  occ. eigenvalues --  -11.33897 -11.33772 -11.29054 -11.28612 -11.25065
 Alpha  occ. eigenvalues --  -11.24935 -11.24377 -11.24029 -11.23323 -11.22725
 Alpha  occ. eigenvalues --  -11.22625 -11.22569 -11.22236 -11.22116 -11.22021
 Alpha  occ. eigenvalues --  -11.21838 -11.21640 -11.20879  -1.40610  -1.39478
 Alpha  occ. eigenvalues --   -1.38743  -1.38201  -1.25458  -1.23664  -1.22696
 Alpha  occ. eigenvalues --   -1.22115  -1.10778  -1.09280  -1.07228  -1.04251
 Alpha  occ. eigenvalues --   -1.01241  -0.99366  -0.98812  -0.95553  -0.95169
 Alpha  occ. eigenvalues --   -0.94632  -0.92192  -0.87292  -0.85794  -0.82857
 Alpha  occ. eigenvalues --   -0.81370  -0.79584  -0.78758  -0.77214  -0.76951
 Alpha  occ. eigenvalues --   -0.71778  -0.71467  -0.71179  -0.68971  -0.67891
 Alpha  occ. eigenvalues --   -0.67033  -0.65885  -0.64572  -0.64014  -0.63492
 Alpha  occ. eigenvalues --   -0.62730  -0.62471  -0.61612  -0.61393  -0.61242
 Alpha  occ. eigenvalues --   -0.60964  -0.59898  -0.59459  -0.58979  -0.58451
 Alpha  occ. eigenvalues --   -0.58261  -0.57848  -0.56701  -0.56519  -0.56155
 Alpha  occ. eigenvalues --   -0.55658  -0.54960  -0.54861  -0.54578  -0.53755
 Alpha  occ. eigenvalues --   -0.53106  -0.52993  -0.52710  -0.52224  -0.51243
 Alpha  occ. eigenvalues --   -0.51030  -0.50388  -0.49845  -0.49331  -0.48653
 Alpha  occ. eigenvalues --   -0.48190  -0.46943  -0.46295  -0.44613  -0.42894
 Alpha  occ. eigenvalues --   -0.41971  -0.41597  -0.41160  -0.39317  -0.38955
 Alpha  occ. eigenvalues --   -0.38358  -0.38311  -0.34501
 Alpha virt. eigenvalues --    0.17434   0.18780   0.19527   0.19964   0.20233
 Alpha virt. eigenvalues --    0.21230   0.21600   0.23110   0.23371   0.23936
 Alpha virt. eigenvalues --    0.25160   0.25528   0.26425   0.26833   0.27484

 Mulliken atomic charges:
              1
     1  C   -0.279620
     2  N   -0.783347
     3  C    0.821940
     4  O   -0.628443
     5  C    0.102313
     6  C   -0.472763
     7  C   -0.334366
     8  C   -0.311666
     9  C   -0.373375
    10  C   -0.180068
    11  C   -0.175181
    12  C   -0.357883
    13  C   -0.328474
    14  C   -0.324440
    15  C    0.082011
    16  C   -0.509962
    17  N   -0.784042
    18  C    0.766384
    19  C   -0.595294
    20  O   -0.613201
    21  C    0.823846
    22  O   -0.638477
    23  N   -0.806334
    24  C   -0.275664
    25  N   -0.843071
    26  C    0.744558
    27  C   -0.588688
    28  O   -0.591799
    29  H    0.187032
    30  H    0.197934
    31  H    0.162506
    32  H    0.391432
    33  H    0.198799
    34  H    0.144222
    35  H    0.212532
    36  H    0.161471
    37  H    0.182261
    38  H    0.164623
    39  H    0.179736
    40  H    0.212927
    41  H    0.173926
    42  H    0.180532
    43  H    0.170029
    44  H    0.175833
    45  H    0.156147
    46  H    0.188110
    47  H    0.184093
    48  H    0.176230
    49  H    0.186144
    50  H    0.183291
    51  H    0.149165
    52  H    0.226288
    53  H    0.387712
    54  H    0.211494
    55  H    0.209129
    56  H    0.176366
    57  H    0.395729
    58  H    0.165264
    59  H    0.199134
    60  H    0.185040
    61  H    0.382667
    62  H    0.218655
    63  H    0.177246
    64  H    0.201410
 Sum of Mulliken atomic charges =   0.00000

 Dipole moment (field-independent basis, Debye):
    X=             -2.5632    Y=             -4.3708    Z=              5.1998  Tot=              7.2603
 Quadrupole moment (field-independent basis, Debye-Ang):
   XX=           -205.3783   YY=           -155.0187   ZZ=           -171.8285
   XY=             31.0528   XZ=            -14.3505   YZ=              8.4846

 Normal termination of Gaussian 09 at Thu Dec  5 19:40:11 2019.
