 Gaussian 09, Revision A.02,
 Gaussian 09:  EM64L-G09RevA.02 11-Jun-2009

 ---------------------------------
 #SP HF/6-31G* Geom=(ModRedundant)
 ---------------------------------

 ------------
 paramfit run
 ------------
 Symbolic Z-matrix:
 Charge =  0 Multiplicity = 1

                         Standard orientation:
 ---------------------------------------------------------------------
 Center     Atomic      Atomic             Coordinates (Angstroms)
 Number     Number       Type             X           Y           Z
 ---------------------------------------------------------------------
      1          6    20001001       -4.303989    2.697843    1.387862
      2          7    20001014       -4.465103    1.314094    0.992229
      3          6    20001002       -4.639818    1.001178   -0.313017
      4          8    20001024       -4.447042    1.789318   -1.196997
      5          6    90000001       -4.969676   -0.469552   -0.625318
      6          6    90000002       -5.582776   -0.571666   -2.025861
      7          6    90000002       -3.691271   -1.342185   -0.499642
      8          6    90000002       -2.487805   -1.039573   -1.410538
      9          6    90000002       -1.527863    0.086098   -0.976933
     10          6    20001004       -0.929786   -0.110975    0.396291
     11          6    20001004        0.262650   -0.601404    0.693500
     12          6    90000002        1.321262   -1.086898   -0.267431
     13          6    90000002        2.478046   -0.095865   -0.489398
     14          6    90000002        3.248871    0.213472    0.800971
     15          6    90000002        4.795070    0.099466    0.770679
     16          6    90000002        5.319081    0.517232    2.154274
     17          7    20001014        5.152922   -1.289175    0.515437
     18          6    20001002        6.446592   -1.662803    0.292108
     19          6    20001001        6.617285   -3.032340   -0.324361
     20          8    20001024        7.382555   -0.962735    0.562334
     21          6    20001002        5.328706    0.959468   -0.397376
     22          8    20001024        5.352563    0.516762   -1.514234
     23          7    20001014        5.661467    2.239919   -0.125908
     24          6    20001001        6.215847    3.085374   -1.163247
     25          7    20001014       -5.892074   -1.013266    0.382149
     26          6    20001002       -7.135686   -0.507260    0.621016
     27          6    20001001       -8.051953   -1.406128    1.425138
     28          8    20001024       -7.478607    0.574284    0.235262
     29          1    20001035       -5.204377    3.275088    1.211683
     30          1    20001035       -3.494769    3.145216    0.829522
     31          1    20001035       -4.061292    2.729781    2.442581
     32          1    20001029       -4.867414    0.694005    1.655494
     33          1    20001034       -4.923575   -0.155765   -2.772462
     34          1    20001034       -5.772716   -1.614488   -2.261835
     35          1    20001034       -6.513798   -0.025594   -2.069806
     36          1    20001034       -4.008746   -2.359737   -0.716476
     37          1    20001034       -3.372195   -1.337823    0.537880
     38          1    20001034       -1.908905   -1.956633   -1.469645
     39          1    20001034       -2.828954   -0.833296   -2.419717
     40          1    20001034       -2.037183    1.040575   -1.007457
     41          1    20001034       -0.742623    0.142045   -1.722655
     42          1    20001033       -1.558368    0.191757    1.218088
     43          1    20001033        0.523512   -0.664057    1.738387
     44          1    20001034        0.879531   -1.313606   -1.230210
     45          1    20001034        1.725918   -2.025602    0.108975
     46          1    20001034        3.137537   -0.520673   -1.241053
     47          1    20001034        2.088404    0.818289   -0.917571
     48          1    20001034        2.905300   -0.447302    1.593984
     49          1    20001034        3.010000    1.223310    1.113248
     50          1    20001034        4.974264   -0.202399    2.887629
     51          1    20001034        4.931381    1.488181    2.444668
     52          1    20001034        6.398224    0.536544    2.182855
     53          1    20001029        4.475613   -1.816967    0.014038
     54          1    20001034        7.616157   -3.388410   -0.123035
     55          1    20001034        6.488147   -2.946441   -1.399103
     56          1    20001034        5.890074   -3.743263    0.052647
     57          1    20001029        5.856591    2.488281    0.815130
     58          1    20001035        6.298586    4.093781   -0.779589
     59          1    20001035        5.559950    3.087568   -2.021396
     60          1    20001035        7.195329    2.742940   -1.481220
     61          1    20001029       -5.749030   -1.968516    0.624190
     62          1    20001034       -8.820448   -0.800976    1.883591
     63          1    20001034       -7.517470   -1.959021    2.189459
     64          1    20001034       -8.525593   -2.119720    0.758614
 ---------------------------------------------------------------------

 SCF Done:  E(RHF) =  -1295.61797396     A.U. after   14 cycles

 The electronic state is 1-A.
 Alpha  occ. eigenvalues --  -20.53676 -20.52193 -20.51893 -20.51797 -15.59636
 Alpha  occ. eigenvalues --  -15.58013 -15.57704 -15.57575 -11.35994 -11.34398
 Alpha  occ. eigenvalues --  -11.33903 -11.33823 -11.29060 -11.28620 -11.25104
 Alpha  occ. eigenvalues --  -11.24939 -11.24379 -11.24036 -11.23270 -11.22733
 Alpha  occ. eigenvalues --  -11.22656 -11.22586 -11.22241 -11.22028 -11.21954
 Alpha  occ. eigenvalues --  -11.21845 -11.21653 -11.20884  -1.40614  -1.39532
 Alpha  occ. eigenvalues --   -1.38750  -1.38259  -1.25463  -1.23694  -1.22741
 Alpha  occ. eigenvalues --   -1.22120  -1.10782  -1.09280  -1.07236  -1.04252
 Alpha  occ. eigenvalues --   -1.01237  -0.99377  -0.98829  -0.95558  -0.95185
 Alpha  occ. eigenvalues --   -0.94648  -0.92191  -0.87305  -0.85836  -0.82860
 Alpha  occ. eigenvalues --   -0.81372  -0.79603  -0.78741  -0.77220  -0.76984
 Alpha  occ. eigenvalues --   -0.71732  -0.71555  -0.71192  -0.68979  -0.67853
 Alpha  occ. eigenvalues --   -0.67102  -0.65892  -0.64606  -0.64046  -0.63508
 Alpha  occ. eigenvalues --   -0.62789  -0.62480  -0.61661  -0.61304  -0.61180
 Alpha  occ. eigenvalues --   -0.60973  -0.59903  -0.59497  -0.59049  -0.58451
 Alpha  occ. eigenvalues --   -0.58261  -0.57874  -0.56860  -0.56512  -0.56113
 Alpha  occ. eigenvalues --   -0.55695  -0.55001  -0.54910  -0.54581  -0.53718
 Alpha  occ. eigenvalues --   -0.53205  -0.53028  -0.52753  -0.52199  -0.51151
 Alpha  occ. eigenvalues --   -0.50983  -0.50455  -0.49864  -0.49339  -0.48648
 Alpha  occ. eigenvalues --   -0.48109  -0.46945  -0.46269  -0.44633  -0.42899
 Alpha  occ. eigenvalues --   -0.41977  -0.41615  -0.41189  -0.39323  -0.39013
 Alpha  occ. eigenvalues --   -0.38365  -0.38312  -0.34508
 Alpha virt. eigenvalues --    0.17425   0.18776   0.19431   0.19956   0.20230
 Alpha virt. eigenvalues --    0.20963   0.21604   0.23068   0.23394   0.23866
 Alpha virt. eigenvalues --    0.25146   0.25507   0.26360   0.26835   0.27565

 Mulliken atomic charges:
              1
     1  C   -0.279618
     2  N   -0.783340
     3  C    0.821947
     4  O   -0.628510
     5  C    0.102313
     6  C   -0.472757
     7  C   -0.334389
     8  C   -0.311633
     9  C   -0.373281
    10  C   -0.180160
    11  C   -0.175153
    12  C   -0.357686
    13  C   -0.339293
    14  C   -0.324830
    15  C    0.080749
    16  C   -0.510082
    17  N   -0.784874
    18  C    0.766317
    19  C   -0.595268
    20  O   -0.613020
    21  C    0.824009
    22  O   -0.638082
    23  N   -0.805904
    24  C   -0.275700
    25  N   -0.843071
    26  C    0.744557
    27  C   -0.588692
    28  O   -0.591806
    29  H    0.187033
    30  H    0.197876
    31  H    0.162580
    32  H    0.391455
    33  H    0.198754
    34  H    0.144257
    35  H    0.212540
    36  H    0.161510
    37  H    0.182272
    38  H    0.164679
    39  H    0.179721
    40  H    0.212866
    41  H    0.173676
    42  H    0.180643
    43  H    0.170049
    44  H    0.176015
    45  H    0.153247
    46  H    0.201812
    47  H    0.182169
    48  H    0.177972
    49  H    0.185752
    50  H    0.183332
    51  H    0.149325
    52  H    0.226109
    53  H    0.389186
    54  H    0.211535
    55  H    0.209033
    56  H    0.176380
    57  H    0.395939
    58  H    0.165385
    59  H    0.199013
    60  H    0.185114
    61  H    0.382679
    62  H    0.218665
    63  H    0.177262
    64  H    0.201420
 Sum of Mulliken atomic charges =   0.00000

 Dipole moment (field-independent basis, Debye):
    X=             -2.3666    Y=             -4.2985    Z=              4.7434  Tot=              6.8247
 Quadrupole moment (field-independent basis, Debye-Ang):
   XX=           -206.8040   YY=           -155.9475   ZZ=           -171.1044
   XY=             36.3845   XZ=            -12.5584   YZ=              8.2242

 Normal termination of Gaussian 09 at Thu Dec  5 19:35:09 2019.
