 Gaussian 09, Revision A.02,
 Gaussian 09:  EM64L-G09RevA.02 11-Jun-2009

 ---------------------------------
 #SP HF/6-31G* Geom=(ModRedundant)
 ---------------------------------

 ------------
 paramfit run
 ------------
 Symbolic Z-matrix:
 Charge =  0 Multiplicity = 1

                         Standard orientation:
 ---------------------------------------------------------------------
 Center     Atomic      Atomic             Coordinates (Angstroms)
 Number     Number       Type             X           Y           Z
 ---------------------------------------------------------------------
      1          6    20001001        3.830363   -0.341564    3.005475
      2          7    20001014        3.779478    0.037500    1.608705
      3          6    20001002        4.100800   -0.864774    0.652273
      4          8    20001024        4.213827   -2.036898    0.882699
      5          6    90000001        4.182342   -0.332768   -0.789846
      6          6    90000002        4.984453   -1.311932   -1.653383
      7          6    90000002        2.754619   -0.111067   -1.359106
      8          6    90000002        1.799681   -1.313329   -1.469997
      9          6    90000002        1.021419   -1.727529   -0.205330
     10          6    20001004        0.179614   -0.622270    0.388004
     11          6    20001004       -1.118113   -0.421535    0.225630
     12          6    90000002       -2.079416   -1.247854   -0.594644
     13          6    90000002       -2.967017   -2.194753    0.233071
     14          6    90000002       -3.862918   -1.446870    1.229537
     15          6    90000002       -4.327451   -0.014689    0.858440
     16          6    90000002       -5.252535    0.479695    1.982385
     17          7    20001014       -3.155941    0.847253    0.780014
     18          6    20001002       -3.245256    2.132893    0.330338
     19          6    20001001       -1.927832    2.767286   -0.052733
     20          8    20001024       -4.286943    2.721495    0.243287
     21          6    20001002       -4.990246   -0.058901   -0.537080
     22          8    20001024       -4.315338   -0.012704   -1.530203
     23          7    20001014       -6.325871   -0.253128   -0.585693
     24          6    20001001       -7.017218   -0.254036   -1.858580
     25          7    20001014        4.802430    1.000086   -0.810394
     26          6    20001002        6.064884    1.254442   -0.361858
     27          6    20001001        6.642680    2.587627   -0.789510
     28          8    20001024        6.671770    0.487312    0.330487
     29          1    20001035        4.842948   -0.553195    3.329256
     30          1    20001035        3.227231   -1.223032    3.166624
     31          1    20001035        3.429233    0.470449    3.598841
     32          1    20001029        3.938146    0.993017    1.389394
     33          1    20001034        4.551020   -2.300103   -1.629182
     34          1    20001034        5.002166   -0.957513   -2.679693
     35          1    20001034        5.998880   -1.389946   -1.290368
     36          1    20001034        2.897453    0.277877   -2.364860
     37          1    20001034        2.277053    0.681500   -0.791613
     38          1    20001034        1.069786   -1.056714   -2.232244
     39          1    20001034        2.335266   -2.179152   -1.845328
     40          1    20001034        1.706065   -2.094390    0.548351
     41          1    20001034        0.395375   -2.570370   -0.476483
     42          1    20001033        0.712104    0.072388    1.017304
     43          1    20001033       -1.553751    0.423818    0.734902
     44          1    20001034       -1.539128   -1.840004   -1.323282
     45          1    20001034       -2.716435   -0.572883   -1.164919
     46          1    20001034       -3.564825   -2.778599   -0.461282
     47          1    20001034       -2.340850   -2.904896    0.756944
     48          1    20001034       -3.351308   -1.368088    2.186397
     49          1    20001034       -4.755560   -2.036446    1.402569
     50          1    20001034       -4.672538    0.573305    2.893111
     51          1    20001034       -6.049582   -0.230555    2.176399
     52          1    20001034       -5.677790    1.445274    1.753135
     53          1    20001029       -2.304093    0.386536    0.554610
     54          1    20001034       -2.033235    3.841282   -0.030716
     55          1    20001034       -1.678406    2.462460   -1.064658
     56          1    20001034       -1.121434    2.462956    0.605663
     57          1    20001029       -6.863277   -0.046911    0.222997
     58          1    20001035       -8.046452   -0.543905   -1.692521
     59          1    20001035       -6.553626   -0.966486   -2.525006
     60          1    20001035       -6.993216    0.722888   -2.330592
     61          1    20001029        4.437099    1.633262   -1.486537
     62          1    20001034        7.429277    2.863775   -0.102500
     63          1    20001034        5.892292    3.369654   -0.819536
     64          1    20001034        7.069779    2.488693   -1.782284
 ---------------------------------------------------------------------

 SCF Done:  E(RHF) =  -1295.45746373     A.U. after   14 cycles

 The electronic state is 1-A.
 Alpha  occ. eigenvalues --  -20.53714 -20.52325 -20.52009 -20.51595 -15.59689
 Alpha  occ. eigenvalues --  -15.58462 -15.57702 -15.54035 -11.36028 -11.34404
 Alpha  occ. eigenvalues --  -11.34014 -11.33772 -11.29148 -11.28268 -11.25473
 Alpha  occ. eigenvalues --  -11.25044 -11.24379 -11.24164 -11.23076 -11.22903
 Alpha  occ. eigenvalues --  -11.22890 -11.22638 -11.22053 -11.22040 -11.21918
 Alpha  occ. eigenvalues --  -11.21585 -11.20948 -11.20100  -1.40657  -1.40142
 Alpha  occ. eigenvalues --   -1.38861  -1.38199  -1.25528  -1.25259  -1.23314
 Alpha  occ. eigenvalues --   -1.22234  -1.11096  -1.08930  -1.08858  -1.04657
 Alpha  occ. eigenvalues --   -1.01267  -0.99863  -0.98801  -0.95689  -0.95609
 Alpha  occ. eigenvalues --   -0.94807  -0.92363  -0.89462  -0.86879  -0.85522
 Alpha  occ. eigenvalues --   -0.81850  -0.80443  -0.79042  -0.78116  -0.77326
 Alpha  occ. eigenvalues --   -0.74474  -0.71303  -0.70349  -0.68849  -0.67360
 Alpha  occ. eigenvalues --   -0.66045  -0.65398  -0.64962  -0.64328  -0.63575
 Alpha  occ. eigenvalues --   -0.62913  -0.62579  -0.62126  -0.61649  -0.61135
 Alpha  occ. eigenvalues --   -0.60709  -0.60169  -0.60019  -0.58911  -0.58610
 Alpha  occ. eigenvalues --   -0.58292  -0.58140  -0.57370  -0.57026  -0.56112
 Alpha  occ. eigenvalues --   -0.55542  -0.54986  -0.54766  -0.54625  -0.53643
 Alpha  occ. eigenvalues --   -0.53002  -0.52866  -0.52583  -0.52218  -0.51590
 Alpha  occ. eigenvalues --   -0.51137  -0.49947  -0.49438  -0.48436  -0.47918
 Alpha  occ. eigenvalues --   -0.47746  -0.46702  -0.45998  -0.43401  -0.42946
 Alpha  occ. eigenvalues --   -0.42061  -0.41484  -0.40323  -0.39412  -0.39311
 Alpha  occ. eigenvalues --   -0.38481  -0.37242  -0.34810
 Alpha virt. eigenvalues --    0.16528   0.18732   0.19287   0.19815   0.20088
 Alpha virt. eigenvalues --    0.20793   0.22169   0.22808   0.23884   0.24631
 Alpha virt. eigenvalues --    0.25502   0.26247   0.26497   0.27011   0.27885

 Mulliken atomic charges:
              1
     1  C   -0.279963
     2  N   -0.784255
     3  C    0.821911
     4  O   -0.628563
     5  C    0.102345
     6  C   -0.472904
     7  C   -0.334391
     8  C   -0.314634
     9  C   -0.373644
    10  C   -0.234670
    11  C   -0.141232
    12  C   -0.455827
    13  C   -0.304602
    14  C   -0.333033
    15  C    0.086592
    16  C   -0.507745
    17  N   -0.883616
    18  C    0.761414
    19  C   -0.611270
    20  O   -0.621045
    21  C    0.840985
    22  O   -0.649218
    23  N   -0.805177
    24  C   -0.276802
    25  N   -0.843372
    26  C    0.744434
    27  C   -0.588740
    28  O   -0.591839
    29  H    0.187833
    30  H    0.197418
    31  H    0.163008
    32  H    0.391746
    33  H    0.198395
    34  H    0.145183
    35  H    0.212878
    36  H    0.163963
    37  H    0.179538
    38  H    0.170936
    39  H    0.181298
    40  H    0.213119
    41  H    0.178843
    42  H    0.182704
    43  H    0.197425
    44  H    0.178463
    45  H    0.304808
    46  H    0.171316
    47  H    0.171880
    48  H    0.184094
    49  H    0.179207
    50  H    0.183995
    51  H    0.144717
    52  H    0.224651
    53  H    0.441342
    54  H    0.211305
    55  H    0.208374
    56  H    0.178815
    57  H    0.399317
    58  H    0.166923
    59  H    0.197414
    60  H    0.186490
    61  H    0.383164
    62  H    0.218848
    63  H    0.177646
    64  H    0.201805
 Sum of Mulliken atomic charges =   0.00000

 Dipole moment (field-independent basis, Debye):
    X=             -1.4132    Y=              2.4723    Z=             -0.8484  Tot=              2.9714
 Quadrupole moment (field-independent basis, Debye-Ang):
   XX=           -176.8255   YY=           -177.6928   ZZ=           -166.0546
   XY=             41.6162   XZ=            -18.9744   YZ=              1.0002

 Normal termination of Gaussian 09 at Thu Dec  5 19:36:41 2019.
