 Gaussian 09, Revision A.02,
 Gaussian 09:  EM64L-G09RevA.02 11-Jun-2009

 ---------------------------------
 #SP HF/6-31G* Geom=(ModRedundant)
 ---------------------------------

 ------------
 paramfit run
 ------------
 Symbolic Z-matrix:
 Charge =  0 Multiplicity = 1

                         Standard orientation:
 ---------------------------------------------------------------------
 Center     Atomic      Atomic             Coordinates (Angstroms)
 Number     Number       Type             X           Y           Z
 ---------------------------------------------------------------------
      1          6    20001001       -2.520725   -2.795029    0.132932
      2          7    20001014       -3.090548   -1.496011   -0.158788
      3          6    20001002       -3.453985   -0.675374    0.854414
      4          8    20001024       -3.125968   -0.870241    1.992033
      5          6    90000001       -4.202390    0.610056    0.458250
      6          6    90000002       -4.935300    1.174269    1.679866
      7          6    90000002       -3.208994    1.644974   -0.136487
      8          6    90000002       -2.049761    2.155706    0.738137
      9          6    90000002       -0.783261    1.281408    0.828795
     10          6    20001004       -0.149694    0.976562   -0.508343
     11          6    20001004        0.881414    1.586789   -1.069768
     12          6    90000002        1.680012    2.740741   -0.512644
     13          6    90000002        3.042664    2.340232    0.080935
     14          6    90000002        3.974573    1.698151   -0.955497
     15          6    90000002        4.466512    0.250856   -0.694768
     16          6    90000002        5.324046   -0.172465   -1.898465
     17          7    20001014        5.286169    0.249332    0.509264
     18          6    20001002        5.737726   -0.913583    1.063141
     19          6    20001001        6.236252   -0.791153    2.484860
     20          8    20001024        5.742046   -1.957666    0.472364
     21          6    20001002        3.235418   -0.649132   -0.443471
     22          8    20001024        2.738497   -0.704932    0.649179
     23          7    20001014        2.693593   -1.274542   -1.510838
     24          6    20001001        1.570287   -2.172542   -1.337687
     25          7    20001014       -5.151028    0.336063   -0.630991
     26          6    20001002       -6.181768   -0.551271   -0.531574
     27          6    20001001       -7.239755   -0.431032   -1.608758
     28          8    20001024       -6.243679   -1.375672    0.335992
     29          1    20001035       -3.238069   -3.451789    0.611506
     30          1    20001035       -1.669310   -2.681349    0.787831
     31          1    20001035       -2.190893   -3.244175   -0.795417
     32          1    20001029       -3.591293   -1.398591   -1.010873
     33          1    20001034       -4.252031    1.359548    2.494574
     34          1    20001034       -5.425105    2.104902    1.409218
     35          1    20001034       -5.679470    0.473424    2.029085
     36          1    20001034       -3.812309    2.509429   -0.404720
     37          1    20001034       -2.815101    1.248564   -1.067072
     38          1    20001034       -1.753872    3.116028    0.326008
     39          1    20001034       -2.404207    2.356035    1.743925
     40          1    20001034       -1.009730    0.351119    1.333412
     41          1    20001034       -0.078702    1.803789    1.466408
     42          1    20001033       -0.598775    0.162293   -1.053692
     43          1    20001033        1.201676    1.226682   -2.034919
     44          1    20001034        1.113540    3.254117    0.254833
     45          1    20001034        1.839707    3.467172   -1.308501
     46          1    20001034        3.493504    3.232962    0.505378
     47          1    20001034        2.886208    1.662736    0.910001
     48          1    20001034        4.865467    2.312057   -1.069340
     49          1    20001034        3.474191    1.696183   -1.916728
     50          1    20001034        6.210462    0.450359   -1.929090
     51          1    20001034        4.791032   -0.025065   -2.832033
     52          1    20001034        5.638588   -1.202454   -1.821494
     53          1    20001029        5.080371    0.968852    1.163979
     54          1    20001034        6.893064   -1.619832    2.701540
     55          1    20001034        5.383605   -0.837895    3.155631
     56          1    20001034        6.756206    0.145200    2.655950
     57          1    20001029        3.254133   -1.399077   -2.320527
     58          1    20001035        1.212771   -2.470955   -2.314443
     59          1    20001035        0.775269   -1.665026   -0.811378
     60          1    20001035        1.845375   -3.057289   -0.772617
     61          1    20001029       -5.257663    1.064917   -1.301027
     62          1    20001034       -7.769772   -1.369335   -1.683877
     63          1    20001034       -6.816562   -0.172007   -2.572793
     64          1    20001034       -7.946397    0.343697   -1.329019
 ---------------------------------------------------------------------

 SCF Done:  E(RHF) =  -1295.61273798     A.U. after   14 cycles

 The electronic state is 1-A.
 Alpha  occ. eigenvalues --  -20.53440 -20.51985 -20.51511 -20.51436 -15.59377
 Alpha  occ. eigenvalues --  -15.57781 -15.57510 -15.57240 -11.35763 -11.34186
 Alpha  occ. eigenvalues --  -11.33539 -11.33509 -11.28741 -11.28481 -11.24864
 Alpha  occ. eigenvalues --  -11.24591 -11.24197 -11.23671 -11.23261 -11.22407
 Alpha  occ. eigenvalues --  -11.22248 -11.22184 -11.21906 -11.21759 -11.21496
 Alpha  occ. eigenvalues --  -11.21318 -11.20921 -11.20601  -1.40369  -1.39267
 Alpha  occ. eigenvalues --   -1.38374  -1.37972  -1.25186  -1.23496  -1.22508
 Alpha  occ. eigenvalues --   -1.21791  -1.10357  -1.09039  -1.06867  -1.03885
 Alpha  occ. eigenvalues --   -1.00942  -0.99090  -0.98570  -0.95229  -0.95021
 Alpha  occ. eigenvalues --   -0.94337  -0.91866  -0.87031  -0.85553  -0.82526
 Alpha  occ. eigenvalues --   -0.81067  -0.79399  -0.78450  -0.76889  -0.76741
 Alpha  occ. eigenvalues --   -0.71838  -0.71011  -0.70753  -0.68666  -0.68038
 Alpha  occ. eigenvalues --   -0.66076  -0.65558  -0.64391  -0.63901  -0.63592
 Alpha  occ. eigenvalues --   -0.62426  -0.62115  -0.61605  -0.61056  -0.60821
 Alpha  occ. eigenvalues --   -0.60582  -0.59674  -0.59030  -0.58404  -0.58174
 Alpha  occ. eigenvalues --   -0.57985  -0.57637  -0.56720  -0.56443  -0.55790
 Alpha  occ. eigenvalues --   -0.55109  -0.54754  -0.54688  -0.54241  -0.54058
 Alpha  occ. eigenvalues --   -0.53234  -0.52450  -0.52415  -0.51779  -0.50910
 Alpha  occ. eigenvalues --   -0.50707  -0.49999  -0.49593  -0.48781  -0.48181
 Alpha  occ. eigenvalues --   -0.47734  -0.46546  -0.46450  -0.44045  -0.42625
 Alpha  occ. eigenvalues --   -0.41656  -0.41334  -0.40950  -0.39010  -0.38778
 Alpha  occ. eigenvalues --   -0.38009  -0.37986  -0.33671
 Alpha virt. eigenvalues --    0.17592   0.19001   0.19762   0.20098   0.20532
 Alpha virt. eigenvalues --    0.21430   0.22012   0.22510   0.23741   0.24077
 Alpha virt. eigenvalues --    0.25630   0.25740   0.26446   0.26922   0.27260

 Mulliken atomic charges:
              1
     1  C   -0.282594
     2  N   -0.784087
     3  C    0.822136
     4  O   -0.626473
     5  C    0.102314
     6  C   -0.472655
     7  C   -0.333359
     8  C   -0.313726
     9  C   -0.370371
    10  C   -0.163646
    11  C   -0.180053
    12  C   -0.346925
    13  C   -0.348916
    14  C   -0.327040
    15  C    0.082725
    16  C   -0.509567
    17  N   -0.784451
    18  C    0.765930
    19  C   -0.595110
    20  O   -0.613401
    21  C    0.834926
    22  O   -0.636543
    23  N   -0.807566
    24  C   -0.280987
    25  N   -0.843016
    26  C    0.744626
    27  C   -0.588565
    28  O   -0.591706
    29  H    0.186900
    30  H    0.204927
    31  H    0.159125
    32  H    0.390366
    33  H    0.199346
    34  H    0.143208
    35  H    0.211888
    36  H    0.159808
    37  H    0.181269
    38  H    0.162431
    39  H    0.177894
    40  H    0.217486
    41  H    0.174749
    42  H    0.173558
    43  H    0.170941
    44  H    0.172188
    45  H    0.159247
    46  H    0.159339
    47  H    0.216544
    48  H    0.182777
    49  H    0.177876
    50  H    0.183868
    51  H    0.146444
    52  H    0.226495
    53  H    0.389175
    54  H    0.211106
    55  H    0.210318
    56  H    0.176534
    57  H    0.393483
    58  H    0.157650
    59  H    0.208682
    60  H    0.184319
    61  H    0.382175
    62  H    0.218247
    63  H    0.176760
    64  H    0.200978
 Sum of Mulliken atomic charges =   0.00000

 Dipole moment (field-independent basis, Debye):
    X=             -0.7454    Y=              5.1133    Z=             -6.5602  Tot=              8.3509
 Quadrupole moment (field-independent basis, Debye-Ang):
   XX=           -164.6934   YY=           -171.5668   ZZ=           -165.9928
   XY=              0.7921   XZ=             24.7428   YZ=             11.0460

 Normal termination of Gaussian 09 at Thu Dec  5 18:58:02 2019.
