 Gaussian 09, Revision A.02,
 Gaussian 09:  EM64L-G09RevA.02 11-Jun-2009

 ---------------------------------
 #SP HF/6-31G* Geom=(ModRedundant)
 ---------------------------------

 ------------
 paramfit run
 ------------
 Symbolic Z-matrix:
 Charge =  0 Multiplicity = 1

                         Standard orientation:
 ---------------------------------------------------------------------
 Center     Atomic      Atomic             Coordinates (Angstroms)
 Number     Number       Type             X           Y           Z
 ---------------------------------------------------------------------
      1          6    20001001       -2.688734    2.740053   -0.940697
      2          7    20001014       -2.871101    1.467512   -0.273892
      3          6    20001002       -3.354092    0.407406   -0.963097
      4          8    20001024       -3.433859    0.398102   -2.160301
      5          6    90000001       -3.673698   -0.854275   -0.141270
      6          6    90000002       -4.615474   -1.761744   -0.939643
      7          6    90000002       -2.360682   -1.591468    0.238387
      8          6    90000002       -1.445268   -2.112621   -0.884132
      9          6    90000002       -0.467991   -1.112016   -1.532481
     10          6    20001004        0.468250   -0.444410   -0.552668
     11          6    20001004        1.721400   -0.772770   -0.283312
     12          6    90000002        2.526104   -1.897884   -0.888558
     13          6    90000002        3.534480   -1.449679   -1.961803
     14          6    90000002        4.589659   -0.479047   -1.414643
     15          6    90000002        4.185300    0.450183   -0.240900
     16          6    90000002        5.426305    1.267232    0.153797
     17          7    20001014        3.137891    1.351142   -0.702138
     18          6    20001002        2.485813    2.186458    0.158152
     19          6    20001001        1.195605    2.767961   -0.372906
     20          8    20001024        2.899394    2.444599    1.254261
     21          6    20001002        3.608257   -0.419891    0.898713
     22          8    20001024        2.456598   -0.762090    0.876125
     23          7    20001014        4.467416   -0.854528    1.845769
     24          6    20001001        3.983641   -1.631033    2.968803
     25          7    20001014       -4.280342   -0.487268    1.146643
     26          6    20001002       -5.447860    0.207816    1.262540
     27          6    20001001       -6.081254    0.175899    2.638008
     28          8    20001024       -5.934342    0.811375    0.348652
     29          1    20001035       -3.633736    3.174307   -1.246221
     30          1    20001035       -2.072437    2.607466   -1.817806
     31          1    20001035       -2.188655    3.418113   -0.260617
     32          1    20001029       -3.058598    1.486311    0.701185
     33          1    20001034       -4.190126   -2.020855   -1.897178
     34          1    20001034       -4.803330   -2.671473   -0.377201
     35          1    20001034       -5.554887   -1.260921   -1.122965
     36          1    20001034       -2.668212   -2.453333    0.826464
     37          1    20001034       -1.789725   -0.955117    0.907226
     38          1    20001034       -0.852368   -2.912686   -0.450561
     39          1    20001034       -2.041556   -2.569955   -1.666859
     40          1    20001034       -1.018393   -0.351192   -2.070596
     41          1    20001034        0.098448   -1.656418   -2.279882
     42          1    20001033        0.053347    0.397770   -0.022857
     43          1    20001033        2.241559   -0.174286    0.448134
     44          1    20001034        1.867439   -2.636290   -1.329447
     45          1    20001034        3.062254   -2.408539   -0.089579
     46          1    20001034        4.003506   -2.341685   -2.367655
     47          1    20001034        3.001014   -0.992999   -2.785020
     48          1    20001034        4.935057    0.168830   -2.217443
     49          1    20001034        5.449258   -1.051387   -1.086212
     50          1    20001034        5.691231    1.916711   -0.672383
     51          1    20001034        6.277225    0.621783    0.345404
     52          1    20001034        5.238929    1.883692    1.020171
     53          1    20001029        2.579890    1.006367   -1.449451
     54          1    20001034        0.956586    3.662551    0.181746
     55          1    20001034        0.401641    2.042543   -0.222855
     56          1    20001034        1.255932    2.996246   -1.431504
     57          1    20001029        5.324737   -0.368656    1.965096
     58          1    20001035        4.834189   -1.980197    3.539394
     59          1    20001035        3.426244   -2.483660    2.609691
     60          1    20001035        3.336765   -1.045686    3.614305
     61          1    20001029       -4.030058   -1.063801    1.918987
     62          1    20001034       -6.739472    1.026485    2.739125
     63          1    20001034       -5.341878    0.189500    3.430907
     64          1    20001034       -6.669765   -0.730427    2.738158
 ---------------------------------------------------------------------

 SCF Done:  E(RHF) =  -1294.92228748     A.U. after   20 cycles

 The electronic state is 1-A.
 Alpha  occ. eigenvalues --  -20.70399 -20.53330 -20.52838 -20.51552 -15.59229
 Alpha  occ. eigenvalues --  -15.58177 -15.57286 -15.56253 -11.35644 -11.34783
 Alpha  occ. eigenvalues --  -11.33551 -11.29946 -11.28862 -11.28566 -11.27442
 Alpha  occ. eigenvalues --  -11.25523 -11.24772 -11.24068 -11.23259 -11.22471
 Alpha  occ. eigenvalues --  -11.22403 -11.21771 -11.21726 -11.21580 -11.21520
 Alpha  occ. eigenvalues --  -11.21155 -11.20470 -11.19339  -1.75112  -1.40267
 Alpha  occ. eigenvalues --   -1.39650  -1.38409  -1.25574  -1.25057  -1.24314
 Alpha  occ. eigenvalues --   -1.21823  -1.13003  -1.09035  -1.08802  -1.04341
 Alpha  occ. eigenvalues --   -1.03727  -1.00073  -0.99126  -0.97690  -0.95436
 Alpha  occ. eigenvalues --   -0.95271  -0.93839  -0.90958  -0.88922  -0.88244
 Alpha  occ. eigenvalues --   -0.85456  -0.81347  -0.80035  -0.78050  -0.77849
 Alpha  occ. eigenvalues --   -0.76900  -0.76002  -0.73027  -0.70837  -0.69572
 Alpha  occ. eigenvalues --   -0.68703  -0.68395  -0.67290  -0.65534  -0.64096
 Alpha  occ. eigenvalues --   -0.62946  -0.62591  -0.62223  -0.61791  -0.61564
 Alpha  occ. eigenvalues --   -0.60727  -0.60705  -0.60127  -0.59664  -0.58810
 Alpha  occ. eigenvalues --   -0.58588  -0.57895  -0.57500  -0.56753  -0.56412
 Alpha  occ. eigenvalues --   -0.55977  -0.55654  -0.55105  -0.54499  -0.54319
 Alpha  occ. eigenvalues --   -0.53109  -0.52528  -0.52283  -0.52025  -0.51102
 Alpha  occ. eigenvalues --   -0.50805  -0.50631  -0.50164  -0.48559  -0.47754
 Alpha  occ. eigenvalues --   -0.47164  -0.46518  -0.46265  -0.44662  -0.42618
 Alpha  occ. eigenvalues --   -0.42517  -0.41889  -0.41535  -0.40643  -0.38952
 Alpha  occ. eigenvalues --   -0.38072  -0.34904  -0.11776
 Alpha virt. eigenvalues --    0.10361   0.18949   0.19125   0.20164   0.20456
 Alpha virt. eigenvalues --    0.21259   0.22888   0.23022   0.24185   0.25043
 Alpha virt. eigenvalues --    0.26021   0.26316   0.27053   0.27345   0.27520

 Mulliken atomic charges:
              1
     1  C   -0.281474
     2  N   -0.785074
     3  C    0.823948
     4  O   -0.630062
     5  C    0.101398
     6  C   -0.471781
     7  C   -0.331624
     8  C   -0.299340
     9  C   -0.342580
    10  C   -0.405876
    11  C    0.115494
    12  C   -0.365769
    13  C   -0.312794
    14  C   -0.290966
    15  C    0.147788
    16  C   -0.507064
    17  N   -0.816556
    18  C    0.724358
    19  C   -0.578768
    20  O   -0.598232
    21  C    0.331385
    22  O   -0.353104
    23  N   -0.806865
    24  C   -0.282566
    25  N   -0.842852
    26  C    0.744742
    27  C   -0.588661
    28  O   -0.592998
    29  H    0.187878
    30  H    0.195293
    31  H    0.163325
    32  H    0.392497
    33  H    0.198377
    34  H    0.143313
    35  H    0.210349
    36  H    0.157346
    37  H    0.181377
    38  H    0.156575
    39  H    0.169294
    40  H    0.206408
    41  H    0.163411
    42  H    0.169463
    43  H    0.360630
    44  H    0.173205
    45  H    0.190165
    46  H    0.166737
    47  H    0.158357
    48  H    0.155438
    49  H    0.171901
    50  H    0.182235
    51  H    0.150326
    52  H    0.223182
    53  H    0.408557
    54  H    0.202922
    55  H    0.203943
    56  H    0.185929
    57  H    0.390532
    58  H    0.172789
    59  H    0.162728
    60  H    0.162563
    61  H    0.382619
    62  H    0.217893
    63  H    0.177766
    64  H    0.200568
 Sum of Mulliken atomic charges =   0.00000

 Dipole moment (field-independent basis, Debye):
    X=              2.2769    Y=             -3.0160    Z=              4.3287  Tot=              5.7461
 Quadrupole moment (field-independent basis, Debye-Ang):
   XX=           -180.0495   YY=           -169.8671   ZZ=           -171.9186
   XY=              1.4040   XZ=            -25.5077   YZ=             -7.2804

 Normal termination of Gaussian 09 at Thu Dec  5 18:53:36 2019.
