 Gaussian 09, Revision A.02,
 Gaussian 09:  EM64L-G09RevA.02 11-Jun-2009

 ---------------------------------
 #SP HF/6-31G* Geom=(ModRedundant)
 ---------------------------------

 ------------
 paramfit run
 ------------
 Symbolic Z-matrix:
 Charge =  0 Multiplicity = 1

                         Standard orientation:
 ---------------------------------------------------------------------
 Center     Atomic      Atomic             Coordinates (Angstroms)
 Number     Number       Type             X           Y           Z
 ---------------------------------------------------------------------
      1          6    20001001       -2.127758    2.812142   -0.061287
      2          7    20001014       -2.646271    1.482874    0.186574
      3          6    20001002       -3.128249    0.744052   -0.840046
      4          8    20001024       -2.947786    1.040175   -1.988737
      5          6    90000001       -3.810849   -0.583777   -0.465465
      6          6    90000002       -4.687584   -1.056363   -1.629871
      7          6    90000002       -2.742486   -1.646688   -0.090732
      8          6    90000002       -1.698895   -2.060397   -1.144012
      9          6    90000002       -0.460676   -1.158385   -1.316715
     10          6    20001004        0.334067   -0.955770   -0.048012
     11          6    20001004        1.432381   -1.592071    0.325598
     12          6    90000002        2.163191   -2.680019   -0.424093
     13          6    90000002        3.437018   -2.205843   -1.146650
     14          6    90000002        4.487212   -1.636396   -0.183459
     15          6    90000002        4.303232   -0.180025    0.316320
     16          6    90000002        5.441888    0.119428    1.304875
     17          7    20001014        4.403455    0.718473   -0.825690
     18          6    20001002        4.138358    2.052336   -0.709119
     19          6    20001001        3.911698    2.774042   -2.017771
     20          8    20001024        4.087785    2.616277    0.348500
     21          6    20001002        2.886329   -0.041983    0.918031
     22          8    20001024        1.942558    0.166973    0.204194
     23          7    20001014        2.748230   -0.266571    2.242594
     24          6    20001001        1.457420   -0.104237    2.879509
     25          7    20001014       -4.616657   -0.420143    0.753275
     26          6    20001002       -5.658483    0.453274    0.860107
     27          6    20001001       -6.571260    0.223150    2.046699
     28          8    20001024       -5.835606    1.346622    0.081200
     29          1    20001035       -2.904733    3.493595   -0.388212
     30          1    20001035       -1.364861    2.769802   -0.824778
     31          1    20001035       -1.686965    3.187397    0.853720
     32          1    20001029       -3.034826    1.304733    1.082998
     33          1    20001034       -4.111086   -1.159655   -2.536465
     34          1    20001034       -5.132203   -2.015371   -1.381163
     35          1    20001034       -5.475199   -0.342392   -1.821794
     36          1    20001034       -3.300519   -2.541652    0.175462
     37          1    20001034       -2.237460   -1.322981    0.813946
     38          1    20001034       -1.346048   -3.046439   -0.856197
     39          1    20001034       -2.175776   -2.181686   -2.111093
     40          1    20001034       -0.756090   -0.193184   -1.707205
     41          1    20001034        0.161855   -1.612063   -2.079909
     42          1    20001033       -0.048905   -0.198806    0.617158
     43          1    20001033        1.869004   -1.308802    1.270522
     44          1    20001034        1.508430   -3.137190   -1.156042
     45          1    20001034        2.427523   -3.467914    0.280139
     46          1    20001034        3.837580   -3.051140   -1.699278
     47          1    20001034        3.172088   -1.463839   -1.888320
     48          1    20001034        5.468323   -1.681419   -0.651356
     49          1    20001034        4.532431   -2.270906    0.693869
     50          1    20001034        6.382696    0.097753    0.767297
     51          1    20001034        5.495073   -0.634640    2.083292
     52          1    20001034        5.333328    1.094981    1.754600
     53          1    20001029        4.154533    0.320497   -1.702254
     54          1    20001034        4.081957    3.830030   -1.872979
     55          1    20001034        2.879354    2.625935   -2.320187
     56          1    20001034        4.556761    2.401871   -2.806291
     57          1    20001029        3.552129   -0.195187    2.820487
     58          1    20001035        1.532184   -0.445340    3.903706
     59          1    20001035        0.718417   -0.699044    2.363074
     60          1    20001035        1.131428    0.930852    2.870897
     61          1    20001029       -4.632368   -1.204748    1.366216
     62          1    20001034       -7.094758    1.141851    2.267858
     63          1    20001034       -6.027923   -0.108413    2.924424
     64          1    20001034       -7.301569   -0.538114    1.791889
 ---------------------------------------------------------------------

 SCF Done:  E(RHF) =  -1295.39005659     A.U. after   16 cycles

 The electronic state is 1-A.
 Alpha  occ. eigenvalues --  -20.52908 -20.52859 -20.52263 -20.50685 -15.59226
 Alpha  occ. eigenvalues --  -15.58694 -15.57880 -15.56364 -11.35185 -11.34484
 Alpha  occ. eigenvalues --  -11.33745 -11.32713 -11.29101 -11.27865 -11.25936
 Alpha  occ. eigenvalues --  -11.23795 -11.23777 -11.23742 -11.22816 -11.22633
 Alpha  occ. eigenvalues --  -11.22481 -11.22297 -11.21607 -11.20649 -11.19879
 Alpha  occ. eigenvalues --  -11.19149 -11.18812 -11.16528  -1.43619  -1.39773
 Alpha  occ. eigenvalues --   -1.38956  -1.37560  -1.25131  -1.24464  -1.23955
 Alpha  occ. eigenvalues --   -1.20940  -1.09918  -1.08402  -1.06823  -1.03158
 Alpha  occ. eigenvalues --   -1.00416  -0.99102  -0.98197  -0.96546  -0.94397
 Alpha  occ. eigenvalues --   -0.93791  -0.91506  -0.87821  -0.85730  -0.82416
 Alpha  occ. eigenvalues --   -0.81556  -0.80401  -0.78792  -0.77200  -0.76059
 Alpha  occ. eigenvalues --   -0.72911  -0.72019  -0.70198  -0.68347  -0.68196
 Alpha  occ. eigenvalues --   -0.67630  -0.65424  -0.64679  -0.63484  -0.62921
 Alpha  occ. eigenvalues --   -0.62575  -0.62035  -0.61640  -0.61257  -0.60233
 Alpha  occ. eigenvalues --   -0.59823  -0.59693  -0.59162  -0.58635  -0.58134
 Alpha  occ. eigenvalues --   -0.57692  -0.57003  -0.56912  -0.56341  -0.56229
 Alpha  occ. eigenvalues --   -0.55847  -0.55157  -0.54874  -0.54214  -0.53403
 Alpha  occ. eigenvalues --   -0.53221  -0.52201  -0.51563  -0.51376  -0.50426
 Alpha  occ. eigenvalues --   -0.50074  -0.49973  -0.49184  -0.47698  -0.47052
 Alpha  occ. eigenvalues --   -0.46834  -0.46712  -0.45287  -0.43501  -0.42114
 Alpha  occ. eigenvalues --   -0.41724  -0.41334  -0.40866  -0.39974  -0.39128
 Alpha  occ. eigenvalues --   -0.38251  -0.37133  -0.22728
 Alpha virt. eigenvalues --    0.18269   0.19556   0.20006   0.20723   0.20984
 Alpha virt. eigenvalues --    0.21385   0.22096   0.22929   0.24093   0.24893
 Alpha virt. eigenvalues --    0.25765   0.26353   0.26690   0.27001   0.27832

 Mulliken atomic charges:
              1
     1  C   -0.276879
     2  N   -0.779335
     3  C    0.826078
     4  O   -0.631569
     5  C    0.101277
     6  C   -0.471476
     7  C   -0.328942
     8  C   -0.300810
     9  C   -0.354508
    10  C   -0.139945
    11  C   -0.203563
    12  C   -0.342074
    13  C   -0.324872
    14  C   -0.335439
    15  C    0.110299
    16  C   -0.509947
    17  N   -0.784692
    18  C    0.765622
    19  C   -0.595994
    20  O   -0.612485
    21  C    0.737612
    22  O   -0.556496
    23  N   -0.813378
    24  C   -0.306113
    25  N   -0.842615
    26  C    0.745056
    27  C   -0.588196
    28  O   -0.592965
    29  H    0.181276
    30  H    0.200640
    31  H    0.161671
    32  H    0.388328
    33  H    0.199118
    34  H    0.141232
    35  H    0.208431
    36  H    0.153443
    37  H    0.179715
    38  H    0.155619
    39  H    0.163168
    40  H    0.199161
    41  H    0.148500
    42  H    0.171913
    43  H    0.209289
    44  H    0.177617
    45  H    0.157927
    46  H    0.171804
    47  H    0.163497
    48  H    0.183311
    49  H    0.176640
    50  H    0.187746
    51  H    0.146939
    52  H    0.228143
    53  H    0.389356
    54  H    0.212075
    55  H    0.210799
    56  H    0.178110
    57  H    0.405932
    58  H    0.176149
    59  H    0.215884
    60  H    0.189369
    61  H    0.381126
    62  H    0.216723
    63  H    0.175944
    64  H    0.199751
 Sum of Mulliken atomic charges =   0.00000

 Dipole moment (field-independent basis, Debye):
    X=              2.8250    Y=             -4.9115    Z=              4.9874  Tot=              7.5483
 Quadrupole moment (field-independent basis, Debye-Ang):
   XX=           -162.6581   YY=           -177.3656   ZZ=           -159.8795
   XY=              5.9610   XZ=            -25.2392   YZ=             -0.7339

 Normal termination of Gaussian 09 at Thu Dec  5 19:26:33 2019.
