 Gaussian 09, Revision A.02,
 Gaussian 09:  EM64L-G09RevA.02 11-Jun-2009

 ---------------------------------
 #SP HF/6-31G* Geom=(ModRedundant)
 ---------------------------------

 ------------
 paramfit run
 ------------
 Symbolic Z-matrix:
 Charge =  0 Multiplicity = 1

                         Standard orientation:
 ---------------------------------------------------------------------
 Center     Atomic      Atomic             Coordinates (Angstroms)
 Number     Number       Type             X           Y           Z
 ---------------------------------------------------------------------
      1          6    20001001       -4.369119    2.597280    1.596925
      2          7    20001014       -4.489907    1.245164    1.092507
      3          6    20001002       -4.666516    1.032263   -0.232480
      4          8    20001024       -4.506880    1.894458   -1.051555
      5          6    90000001       -4.952440   -0.418634   -0.659715
      6          6    90000002       -5.574744   -0.428058   -2.059891
      7          6    90000002       -3.645933   -1.256757   -0.612900
      8          6    90000002       -2.461017   -0.843461   -1.504414
      9          6    90000002       -1.533312    0.274316   -0.988105
     10          6    20001004       -0.916792   -0.012629    0.360910
     11          6    20001004        0.293246   -0.486486    0.609959
     12          6    90000002        1.357902   -0.859028   -0.393770
     13          6    90000002        2.480631    0.183457   -0.543004
     14          6    90000002        3.253003    0.413247    0.762963
     15          6    90000002        4.775982    0.121455    0.769272
     16          6    90000002        5.313691    0.488230    2.162038
     17          7    20001014        4.976696   -1.301388    0.531024
     18          6    20001002        6.223231   -1.823649    0.340103
     19          6    20001001        6.248361   -3.209130   -0.263731
     20          8    20001024        7.227502   -1.233810    0.627629
     21          6    20001002        5.431315    0.903830   -0.391397
     22          8    20001024        5.428832    0.451469   -1.504632
     23          7    20001014        5.903564    2.139722   -0.120226
     24          6    20001001        6.574897    2.906412   -1.149644
     25          7    20001014       -5.847920   -1.070780    0.306853
     26          6    20001002       -7.104711   -0.625975    0.593724
     27          6    20001001       -7.984664   -1.615472    1.329046
     28          8    20001024       -7.485234    0.471332    0.298325
     29          1    20001035       -5.288915    3.157377    1.473572
     30          1    20001035       -3.579607    3.113832    1.071028
     31          1    20001035       -4.117947    2.552505    2.649189
     32          1    20001029       -4.866302    0.561290    1.706453
     33          1    20001034       -4.935889    0.067363   -2.774981
     34          1    20001034       -5.733689   -1.454233   -2.377599
     35          1    20001034       -6.522963    0.089406   -2.053742
     36          1    20001034       -3.932970   -2.263411   -0.908666
     37          1    20001034       -3.317707   -1.325160    0.419509
     38          1    20001034       -1.853913   -1.733658   -1.640767
     39          1    20001034       -2.817722   -0.568188   -2.491511
     40          1    20001034       -2.072877    1.211213   -0.938543
     41          1    20001034       -0.757073    0.415129   -1.732053
     42          1    20001033       -1.547130    0.202870    1.208464
     43          1    20001033        0.565481   -0.624125    1.644708
     44          1    20001034        0.914815   -1.022089   -1.368732
     45          1    20001034        1.795516   -1.811285   -0.096622
     46          1    20001034        3.146369   -0.158279   -1.330650
     47          1    20001034        2.058329    1.115884   -0.893820
     48          1    20001034        2.817800   -0.196468    1.551874
     49          1    20001034        3.125426    1.446613    1.063341
     50          1    20001034        4.871785   -0.180332    2.891644
     51          1    20001034        5.034318    1.499935    2.437327
     52          1    20001034        6.386936    0.383234    2.215538
     53          1    20001029        4.254341   -1.751975    0.017325
     54          1    20001034        7.194685   -3.676204   -0.037073
     55          1    20001034        6.154045   -3.118419   -1.341692
     56          1    20001034        5.435681   -3.828099    0.100701
     57          1    20001029        6.104993    2.372237    0.823528
     58          1    20001035        6.764939    3.901903   -0.770433
     59          1    20001035        5.942976    2.976631   -2.022782
     60          1    20001035        7.515141    2.450525   -1.442669
     61          1    20001029       -5.672478   -2.037217    0.470456
     62          1    20001034       -8.767735   -1.074116    1.839640
     63          1    20001034       -7.425982   -2.210217    2.042980
     64          1    20001034       -8.441514   -2.288346    0.610485
 ---------------------------------------------------------------------

 SCF Done:  E(RHF) =  -1295.61693844     A.U. after   14 cycles

 The electronic state is 1-A.
 Alpha  occ. eigenvalues --  -20.53682 -20.52216 -20.51903 -20.51854 -15.59643
 Alpha  occ. eigenvalues --  -15.58056 -15.57720 -15.57583 -11.36000 -11.34415
 Alpha  occ. eigenvalues --  -11.33913 -11.33870 -11.29069 -11.28622 -11.25143
 Alpha  occ. eigenvalues --  -11.24946 -11.24383 -11.24047 -11.23221 -11.22748
 Alpha  occ. eigenvalues --  -11.22676 -11.22632 -11.22262 -11.22054 -11.21848
 Alpha  occ. eigenvalues --  -11.21816 -11.21675 -11.20893  -1.40620  -1.39577
 Alpha  occ. eigenvalues --   -1.38760  -1.38308  -1.25470  -1.23712  -1.22786
 Alpha  occ. eigenvalues --   -1.22128  -1.10796  -1.09282  -1.07247  -1.04260
 Alpha  occ. eigenvalues --   -1.01238  -0.99390  -0.98843  -0.95565  -0.95207
 Alpha  occ. eigenvalues --   -0.94664  -0.92198  -0.87326  -0.85886  -0.82867
 Alpha  occ. eigenvalues --   -0.81384  -0.79613  -0.78721  -0.77228  -0.77014
 Alpha  occ. eigenvalues --   -0.71695  -0.71657  -0.71205  -0.68990  -0.67808
 Alpha  occ. eigenvalues --   -0.67156  -0.65902  -0.64648  -0.64080  -0.63573
 Alpha  occ. eigenvalues --   -0.62825  -0.62485  -0.61697  -0.61309  -0.61033
 Alpha  occ. eigenvalues --   -0.60969  -0.59924  -0.59534  -0.59106  -0.58452
 Alpha  occ. eigenvalues --   -0.58266  -0.57911  -0.57006  -0.56513  -0.56090
 Alpha  occ. eigenvalues --   -0.55721  -0.55054  -0.54954  -0.54586  -0.53705
 Alpha  occ. eigenvalues --   -0.53289  -0.53074  -0.52784  -0.52182  -0.51119
 Alpha  occ. eigenvalues --   -0.50884  -0.50530  -0.49863  -0.49355  -0.48645
 Alpha  occ. eigenvalues --   -0.48062  -0.46955  -0.46257  -0.44660  -0.42907
 Alpha  occ. eigenvalues --   -0.41985  -0.41618  -0.41204  -0.39331  -0.39063
 Alpha  occ. eigenvalues --   -0.38374  -0.38313  -0.34534
 Alpha virt. eigenvalues --    0.17386   0.18769   0.19334   0.19946   0.20222
 Alpha virt. eigenvalues --    0.20847   0.21623   0.23039   0.23412   0.23780
 Alpha virt. eigenvalues --    0.25138   0.25477   0.26352   0.26877   0.27651

 Mulliken atomic charges:
              1
     1  C   -0.279628
     2  N   -0.783352
     3  C    0.821938
     4  O   -0.628555
     5  C    0.102319
     6  C   -0.472757
     7  C   -0.334421
     8  C   -0.311632
     9  C   -0.373272
    10  C   -0.180313
    11  C   -0.175043
    12  C   -0.357468
    13  C   -0.347897
    14  C   -0.326671
    15  C    0.081167
    16  C   -0.510099
    17  N   -0.787778
    18  C    0.766530
    19  C   -0.595586
    20  O   -0.612914
    21  C    0.823346
    22  O   -0.637800
    23  N   -0.805470
    24  C   -0.275714
    25  N   -0.843074
    26  C    0.744554
    27  C   -0.588696
    28  O   -0.591805
    29  H    0.187050
    30  H    0.197838
    31  H    0.162649
    32  H    0.391480
    33  H    0.198711
    34  H    0.144302
    35  H    0.212563
    36  H    0.161580
    37  H    0.182259
    38  H    0.164742
    39  H    0.179764
    40  H    0.212903
    41  H    0.173499
    42  H    0.180875
    43  H    0.170274
    44  H    0.176810
    45  H    0.149671
    46  H    0.213871
    47  H    0.180453
    48  H    0.179609
    49  H    0.185012
    50  H    0.183391
    51  H    0.149414
    52  H    0.225946
    53  H    0.392748
    54  H    0.211554
    55  H    0.208972
    56  H    0.176319
    57  H    0.396159
    58  H    0.165509
    59  H    0.198854
    60  H    0.185214
    61  H    0.382694
    62  H    0.218683
    63  H    0.177279
    64  H    0.201436
 Sum of Mulliken atomic charges =   0.00000

 Dipole moment (field-independent basis, Debye):
    X=             -2.1325    Y=             -4.2039    Z=              4.2648  Tot=              6.3568
 Quadrupole moment (field-independent basis, Debye-Ang):
   XX=           -207.2036   YY=           -157.4415   ZZ=           -170.3210
   XY=             41.3942   XZ=            -10.2877   YZ=              7.9549

 Normal termination of Gaussian 09 at Thu Dec  5 19:30:08 2019.
