 Gaussian 09, Revision A.02,
 Gaussian 09:  EM64L-G09RevA.02 11-Jun-2009

 ---------------------------------
 #SP HF/6-31G* Geom=(ModRedundant)
 ---------------------------------

 ------------
 paramfit run
 ------------
 Symbolic Z-matrix:
 Charge =  0 Multiplicity = 1

                         Standard orientation:
 ---------------------------------------------------------------------
 Center     Atomic      Atomic             Coordinates (Angstroms)
 Number     Number       Type             X           Y           Z
 ---------------------------------------------------------------------
      1          6    20001001       -2.161834    2.798835   -0.079747
      2          7    20001014       -2.714914    1.485209    0.176638
      3          6    20001002       -3.171512    0.732613   -0.851578
      4          8    20001024       -2.941699    0.999608   -1.998594
      5          6    90000001       -3.893335   -0.573722   -0.474954
      6          6    90000002       -4.733950   -1.056009   -1.661802
      7          6    90000002       -2.860700   -1.647470   -0.036396
      8          6    90000002       -1.785848   -2.103761   -1.039455
      9          6    90000002       -0.524811   -1.228776   -1.183761
     10          6    20001004        0.224713   -1.012506    0.109962
     11          6    20001004        1.295526   -1.660399    0.539323
     12          6    90000002        2.033325   -2.778102   -0.157917
     13          6    90000002        3.342676   -2.343723   -0.840910
     14          6    90000002        4.366131   -1.772307    0.149512
     15          6    90000002        4.336318   -0.247256    0.428756
     16          6    90000002        5.407900    0.051993    1.489706
     17          7    20001014        4.664035    0.456503   -0.803663
     18          6    20001002        4.573290    1.815375   -0.894702
     19          6    20001001        4.570084    2.361102   -2.304305
     20          8    20001024        4.501514    2.529155    0.066811
     21          6    20001002        2.901502    0.148372    0.845294
     22          8    20001024        2.065719    0.364549    0.009433
     23          7    20001014        2.611144    0.137459    2.164215
     24          6    20001001        1.300714    0.546709    2.626266
     25          7    20001014       -4.741746   -0.368078    0.707983
     26          6    20001002       -5.769884    0.526535    0.755642
     27          6    20001001       -6.731519    0.339836    1.910857
     28          8    20001024       -5.899940    1.405353   -0.048661
     29          1    20001035       -2.912514    3.486993   -0.451056
     30          1    20001035       -1.371326    2.725403   -0.812159
     31          1    20001035       -1.749123    3.186279    0.843243
     32          1    20001029       -3.140736    1.334336    1.061058
     33          1    20001034       -4.125385   -1.190137   -2.543046
     34          1    20001034       -5.206108   -2.000871   -1.409732
     35          1    20001034       -5.499783   -0.332134   -1.899354
     36          1    20001034       -3.445603   -2.525837    0.227385
     37          1    20001034       -2.384413   -1.312966    0.879867
     38          1    20001034       -1.463280   -3.089448   -0.716982
     39          1    20001034       -2.227739   -2.237845   -2.021354
     40          1    20001034       -0.786482   -0.267274   -1.606143
     41          1    20001034        0.117532   -1.710784   -1.912388
     42          1    20001033       -0.168712   -0.233939    0.743337
     43          1    20001033        1.701159   -1.364158    1.494030
     44          1    20001034        1.398282   -3.239397   -0.904505
     45          1    20001034        2.255388   -3.554787    0.572865
     46          1    20001034        3.747682   -3.208393   -1.359264
     47          1    20001034        3.120561   -1.613738   -1.608124
     48          1    20001034        5.371311   -2.004069   -0.196076
     49          1    20001034        4.242497   -2.273106    1.102543
     50          1    20001034        6.383010   -0.162082    1.067907
     51          1    20001034        5.285072   -0.581558    2.362007
     52          1    20001034        5.391682    1.088491    1.791608
     53          1    20001029        4.446125   -0.031512   -1.642155
     54          1    20001034        4.868262    3.398245   -2.282312
     55          1    20001034        3.559948    2.297366   -2.697608
     56          1    20001034        5.229198    1.802388   -2.959886
     57          1    20001029        3.359822    0.193773    2.813538
     58          1    20001035        1.232461    0.351765    3.688461
     59          1    20001035        0.539049   -0.022475    2.113896
     60          1    20001035        1.120914    1.601430    2.444638
     61          1    20001029       -4.795924   -1.138360    1.336694
     62          1    20001034       -7.245292    1.272730    2.091737
     63          1    20001034       -6.228540    0.018037    2.815848
     64          1    20001034       -7.466094   -0.413366    1.644608
 ---------------------------------------------------------------------

 SCF Done:  E(RHF) =  -1295.52079862     A.U. after   14 cycles

 The electronic state is 1-A.
 Alpha  occ. eigenvalues --  -20.53095 -20.52131 -20.51890 -20.50997 -15.58979
 Alpha  occ. eigenvalues --  -15.58346 -15.57693 -15.56684 -11.35421 -11.34346
 Alpha  occ. eigenvalues --  -11.33725 -11.33029 -11.28796 -11.28235 -11.25421
 Alpha  occ. eigenvalues --  -11.23972 -11.23926 -11.23588 -11.23020 -11.22518
 Alpha  occ. eigenvalues --  -11.22428 -11.22031 -11.21521 -11.21382 -11.20190
 Alpha  occ. eigenvalues --  -11.19825 -11.18719 -11.18540  -1.40310  -1.40014
 Alpha  occ. eigenvalues --   -1.38620  -1.37866  -1.24762  -1.23875  -1.23564
 Alpha  occ. eigenvalues --   -1.21245  -1.09824  -1.08712  -1.06607  -1.03436
 Alpha  occ. eigenvalues --   -1.00483  -0.99023  -0.98275  -0.95981  -0.94655
 Alpha  occ. eigenvalues --   -0.93961  -0.91489  -0.87070  -0.85489  -0.82065
 Alpha  occ. eigenvalues --   -0.80898  -0.80081  -0.78292  -0.77095  -0.76363
 Alpha  occ. eigenvalues --   -0.72185  -0.71234  -0.70475  -0.68379  -0.68044
 Alpha  occ. eigenvalues --   -0.67098  -0.65255  -0.64857  -0.63617  -0.62973
 Alpha  occ. eigenvalues --   -0.62191  -0.62080  -0.61760  -0.61253  -0.60343
 Alpha  occ. eigenvalues --   -0.60171  -0.59594  -0.58796  -0.58568  -0.58065
 Alpha  occ. eigenvalues --   -0.57771  -0.57250  -0.57059  -0.56347  -0.55734
 Alpha  occ. eigenvalues --   -0.55520  -0.54962  -0.54440  -0.53922  -0.53602
 Alpha  occ. eigenvalues --   -0.53183  -0.52122  -0.51806  -0.51610  -0.50543
 Alpha  occ. eigenvalues --   -0.50235  -0.50131  -0.49383  -0.47753  -0.47656
 Alpha  occ. eigenvalues --   -0.47252  -0.46554  -0.45642  -0.44085  -0.42308
 Alpha  occ. eigenvalues --   -0.41887  -0.41180  -0.41138  -0.39226  -0.38618
 Alpha  occ. eigenvalues --   -0.38537  -0.37445  -0.28052
 Alpha virt. eigenvalues --    0.17901   0.19330   0.20054   0.20671   0.20976
 Alpha virt. eigenvalues --    0.21468   0.22400   0.23305   0.23863   0.24443
 Alpha virt. eigenvalues --    0.25559   0.26354   0.26806   0.27019   0.28063

 Mulliken atomic charges:
              1
     1  C   -0.278885
     2  N   -0.781778
     3  C    0.824593
     4  O   -0.629448
     5  C    0.101736
     6  C   -0.472035
     7  C   -0.330513
     8  C   -0.308416
     9  C   -0.365072
    10  C   -0.110742
    11  C   -0.255067
    12  C   -0.341320
    13  C   -0.326397
    14  C   -0.333436
    15  C    0.099611
    16  C   -0.509165
    17  N   -0.783766
    18  C    0.765955
    19  C   -0.595875
    20  O   -0.613647
    21  C    0.793985
    22  O   -0.596434
    23  N   -0.816854
    24  C   -0.283102
    25  N   -0.842826
    26  C    0.744886
    27  C   -0.588353
    28  O   -0.592259
    29  H    0.182553
    30  H    0.205625
    31  H    0.160098
    32  H    0.388602
    33  H    0.199016
    34  H    0.142059
    35  H    0.210058
    36  H    0.156639
    37  H    0.178997
    38  H    0.160355
    39  H    0.170436
    40  H    0.209133
    41  H    0.159208
    42  H    0.181376
    43  H    0.224664
    44  H    0.171681
    45  H    0.156477
    46  H    0.166937
    47  H    0.173267
    48  H    0.183695
    49  H    0.176927
    50  H    0.185870
    51  H    0.146673
    52  H    0.227287
    53  H    0.388561
    54  H    0.211626
    55  H    0.210885
    56  H    0.177380
    57  H    0.398947
    58  H    0.170139
    59  H    0.184666
    60  H    0.189301
    61  H    0.381556
    62  H    0.217429
    63  H    0.176257
    64  H    0.200242
 Sum of Mulliken atomic charges =   0.00000

 Dipole moment (field-independent basis, Debye):
    X=              1.5651    Y=             -5.0862    Z=              5.2138  Tot=              7.4500
 Quadrupole moment (field-independent basis, Debye-Ang):
   XX=           -161.9760   YY=           -177.6801   ZZ=           -160.1504
   XY=              4.5680   XZ=            -25.9678   YZ=              2.9704

 Normal termination of Gaussian 09 at Thu Dec  5 19:18:25 2019.
