 Gaussian 09, Revision A.02,
 Gaussian 09:  EM64L-G09RevA.02 11-Jun-2009

 ---------------------------------
 #SP HF/6-31G* Geom=(ModRedundant)
 ---------------------------------

 ------------
 paramfit run
 ------------
 Symbolic Z-matrix:
 Charge =  0 Multiplicity = 1

                         Standard orientation:
 ---------------------------------------------------------------------
 Center     Atomic      Atomic             Coordinates (Angstroms)
 Number     Number       Type             X           Y           Z
 ---------------------------------------------------------------------
      1          6    20001001        4.373498   -1.917918    2.404686
      2          7    20001014        4.365417   -0.829428    1.449505
      3          6    20001002        4.580186   -1.081452    0.137077
      4          8    20001024        4.557959   -2.191045   -0.319054
      5          6    90000001        4.721195    0.146185   -0.780752
      6          6    90000002        5.404806   -0.266664   -2.088450
      7          6    90000002        3.327960    0.779872   -1.043314
      8          6    90000002        2.241112   -0.064747   -1.732529
      9          6    90000002        1.421397   -1.030443   -0.853816
     10          6    20001004        0.712635   -0.360425    0.299878
     11          6    20001004       -0.553558    0.019358    0.357140
     12          6    90000002       -1.604082   -0.122215   -0.718084
     13          6    90000002       -2.593964   -1.278499   -0.488502
     14          6    90000002       -3.397216   -1.121680    0.809615
     15          6    90000002       -4.615697   -0.162582    0.800635
     16          6    90000002       -5.274285   -0.234872    2.187894
     17          7    20001014       -4.137877    1.192245    0.560496
     18          6    20001002       -5.003162    2.228085    0.357093
     19          6    20001001       -4.383303    3.467372   -0.246849
     20          8    20001024       -6.168704    2.167077    0.634460
     21          6    20001002       -5.546856   -0.561536   -0.366629
     22          8    20001024       -5.326764   -0.165986   -1.479745
     23          7    20001014       -6.536694   -1.440899   -0.100321
     24          6    20001001       -7.476031   -1.817973   -1.136499
     25          7    20001014        5.490314    1.203454   -0.108391
     26          6    20001002        6.773983    1.046770    0.324409
     27          6    20001001        7.500811    2.332579    0.659869
     28          8    20001024        7.289240   -0.028589    0.443800
     29          1    20001035        5.355310   -2.368411    2.494411
     30          1    20001035        3.673199   -2.679973    2.095530
     31          1    20001035        4.068794   -1.533143    3.369806
     32          1    20001029        4.632659    0.068498    1.779043
     33          1    20001034        4.860715   -1.057968   -2.581132
     34          1    20001034        5.462326    0.590795   -2.752296
     35          1    20001034        6.403831   -0.628152   -1.892999
     36          1    20001034        3.513756    1.642690   -1.679116
     37          1    20001034        2.945072    1.170071   -0.105539
     38          1    20001034        1.544944    0.637556   -2.181682
     39          1    20001034        2.673368   -0.627069   -2.553701
     40          1    20001034        2.059942   -1.815120   -0.469231
     41          1    20001034        0.702441   -1.520175   -1.501194
     42          1    20001033        1.321909   -0.181892    1.171098
     43          1    20001033       -0.888775    0.481391    1.272518
     44          1    20001034       -1.135985   -0.263468   -1.684727
     45          1    20001034       -2.159767    0.812371   -0.784080
     46          1    20001034       -3.255442   -1.323084   -1.349219
     47          1    20001034       -2.053137   -2.215654   -0.479782
     48          1    20001034       -2.737570   -0.776595    1.602912
     49          1    20001034       -3.761541   -2.096706    1.111177
     50          1    20001034       -4.581110    0.159127    2.921960
     51          1    20001034       -5.493623   -1.260536    2.465895
     52          1    20001034       -6.179638    0.351856    2.230608
     53          1    20001029       -3.284672    1.258111    0.054123
     54          1    20001034       -5.011083    4.318131   -0.029678
     55          1    20001034       -4.331567    3.338561   -1.323815
     56          1    20001034       -3.380367    3.645268    0.125786
     57          1    20001029       -6.830906   -1.550538    0.841341
     58          1    20001035       -8.105729   -2.613033   -0.759299
     59          1    20001035       -6.939276   -2.174723   -2.003245
     60          1    20001035       -8.098893   -0.982309   -1.438926
     61          1    20001029        5.199632    2.135755   -0.302984
     62          1    20001034        8.314464    2.108050    1.334056
     63          1    20001034        6.845230    3.069194    1.110604
     64          1    20001034        7.912937    2.756575   -0.250176
 ---------------------------------------------------------------------

 SCF Done:  E(RHF) =  -1295.60966122     A.U. after   14 cycles

 The electronic state is 1-A.
 Alpha  occ. eigenvalues --  -20.53731 -20.52096 -20.51984 -20.51860 -15.59702
 Alpha  occ. eigenvalues --  -15.58111 -15.57660 -15.57294 -11.36048 -11.34286
 Alpha  occ. eigenvalues --  -11.33991 -11.33888 -11.29147 -11.28577 -11.25220
 Alpha  occ. eigenvalues --  -11.25009 -11.24416 -11.24152 -11.23250 -11.22998
 Alpha  occ. eigenvalues --  -11.22884 -11.22670 -11.22535 -11.22349 -11.22061
 Alpha  occ. eigenvalues --  -11.21867 -11.21813 -11.20958  -1.40671  -1.39541
 Alpha  occ. eigenvalues --   -1.38839  -1.38269  -1.25533  -1.23697  -1.22834
 Alpha  occ. eigenvalues --   -1.22202  -1.10975  -1.09334  -1.07384  -1.04446
 Alpha  occ. eigenvalues --   -1.01333  -0.99474  -0.98893  -0.95634  -0.95338
 Alpha  occ. eigenvalues --   -0.94707  -0.92322  -0.87505  -0.86137  -0.82997
 Alpha  occ. eigenvalues --   -0.81744  -0.79615  -0.78590  -0.77306  -0.77103
 Alpha  occ. eigenvalues --   -0.72518  -0.71618  -0.71256  -0.69055  -0.67682
 Alpha  occ. eigenvalues --   -0.67007  -0.65975  -0.64749  -0.64174  -0.63890
 Alpha  occ. eigenvalues --   -0.62852  -0.62525  -0.61745  -0.61346  -0.61037
 Alpha  occ. eigenvalues --   -0.60672  -0.60201  -0.59583  -0.59141  -0.58510
 Alpha  occ. eigenvalues --   -0.58330  -0.58102  -0.57375  -0.56712  -0.56251
 Alpha  occ. eigenvalues --   -0.55704  -0.55222  -0.54990  -0.54647  -0.53820
 Alpha  occ. eigenvalues --   -0.53341  -0.53217  -0.52892  -0.52186  -0.51162
 Alpha  occ. eigenvalues --   -0.50827  -0.50503  -0.49771  -0.49534  -0.48650
 Alpha  occ. eigenvalues --   -0.48464  -0.47114  -0.46308  -0.44803  -0.42966
 Alpha  occ. eigenvalues --   -0.42056  -0.41526  -0.41037  -0.39399  -0.38972
 Alpha  occ. eigenvalues --   -0.38446  -0.38365  -0.34824
 Alpha virt. eigenvalues --    0.17178   0.18718   0.19386   0.19879   0.20156
 Alpha virt. eigenvalues --    0.21208   0.21930   0.22979   0.23490   0.23598
 Alpha virt. eigenvalues --    0.25163   0.25359   0.26481   0.27129   0.27790

 Mulliken atomic charges:
              1
     1  C   -0.279765
     2  N   -0.783614
     3  C    0.821741
     4  O   -0.628566
     5  C    0.102407
     6  C   -0.472807
     7  C   -0.334709
     8  C   -0.311995
     9  C   -0.374202
    10  C   -0.179209
    11  C   -0.174165
    12  C   -0.374976
    13  C   -0.325880
    14  C   -0.339994
    15  C    0.088446
    16  C   -0.508596
    17  N   -0.810440
    18  C    0.767935
    19  C   -0.600607
    20  O   -0.614113
    21  C    0.820088
    22  O   -0.640245
    23  N   -0.805807
    24  C   -0.275421
    25  N   -0.843136
    26  C    0.744520
    27  C   -0.588725
    28  O   -0.591737
    29  H    0.187343
    30  H    0.197660
    31  H    0.162949
    32  H    0.391645
    33  H    0.198533
    34  H    0.144652
    35  H    0.212818
    36  H    0.162297
    37  H    0.181845
    38  H    0.165456
    39  H    0.180557
    40  H    0.213795
    41  H    0.173170
    42  H    0.182677
    43  H    0.172751
    44  H    0.187282
    45  H    0.145052
    46  H    0.214050
    47  H    0.174238
    48  H    0.185451
    49  H    0.180897
    50  H    0.183216
    51  H    0.148912
    52  H    0.225920
    53  H    0.418257
    54  H    0.211783
    55  H    0.208757
    56  H    0.175779
    57  H    0.396474
    58  H    0.165573
    59  H    0.197611
    60  H    0.185562
    61  H    0.382799
    62  H    0.218840
    63  H    0.177367
    64  H    0.201602
 Sum of Mulliken atomic charges =   0.00000

 Dipole moment (field-independent basis, Debye):
    X=              0.9505    Y=              3.5895    Z=              2.2341  Tot=              4.3335
 Quadrupole moment (field-independent basis, Debye-Ang):
   XX=           -199.5067   YY=           -167.3714   ZZ=           -167.4290
   XY=             53.5061   XZ=             -3.2291   YZ=             -5.5539

 Normal termination of Gaussian 09 at Thu Dec  5 19:09:47 2019.
