 Gaussian 09, Revision A.02,
 Gaussian 09:  EM64L-G09RevA.02 11-Jun-2009

 ---------------------------------
 #SP HF/6-31G* Geom=(ModRedundant)
 ---------------------------------

 ------------
 paramfit run
 ------------
 Symbolic Z-matrix:
 Charge =  0 Multiplicity = 1

                         Standard orientation:
 ---------------------------------------------------------------------
 Center     Atomic      Atomic             Coordinates (Angstroms)
 Number     Number       Type             X           Y           Z
 ---------------------------------------------------------------------
      1          6    20001001        3.662644    0.115924    3.002207
      2          7    20001014        3.625499    0.274961    1.563258
      3          6    20001002        3.973861   -0.757879    0.760766
      4          8    20001024        4.101511   -1.878564    1.170051
      5          6    90000001        4.067417   -0.452427   -0.745001
      6          6    90000002        4.896340   -1.538687   -1.438374
      7          6    90000002        2.644570   -0.345418   -1.357909
      8          6    90000002        1.709709   -1.566694   -1.293453
      9          6    90000002        0.920264   -1.795009    0.010881
     10          6    20001004        0.053508   -0.626365    0.417432
     11          6    20001004       -1.244735   -0.475320    0.211253
     12          6    90000002       -2.181782   -1.434269   -0.483089
     13          6    90000002       -3.066320   -2.257892    0.470223
     14          6    90000002       -3.987345   -1.381322    1.329439
     15          6    90000002       -4.277753    0.062948    0.845298
     16          6    90000002       -5.264067    0.696936    1.839631
     17          7    20001014       -3.030183    0.814634    0.853520
     18          6    20001002       -2.954343    2.076328    0.338317
     19          6    20001001       -1.551856    2.572191    0.070072
     20          8    20001024       -3.923074    2.747130    0.113090
     21          6    20001002       -4.794910   -0.000887   -0.609761
     22          8    20001024       -4.020165   -0.068269   -1.525818
     23          7    20001014       -6.130638   -0.081218   -0.792409
     24          6    20001001       -6.684695   -0.092724   -2.130726
     25          7    20001014        4.667345    0.871916   -0.963251
     26          6    20001002        5.919388    1.213849   -0.544752
     27          6    20001001        6.482714    2.475246   -1.165768
     28          8    20001024        6.528168    0.572754    0.264275
     29          1    20001035        4.673717   -0.025994    3.366269
     30          1    20001035        3.070825   -0.740567    3.290125
     31          1    20001035        3.240937    1.002435    3.458950
     32          1    20001029        3.772632    1.188027    1.201390
     33          1    20001034        4.477723   -2.518719   -1.267404
     34          1    20001034        4.922980   -1.345903   -2.506719
     35          1    20001034        5.906669   -1.542536   -1.056082
     36          1    20001034        2.795491   -0.113212   -2.409824
     37          1    20001034        2.147101    0.516590   -0.924612
     38          1    20001034        0.986703   -1.442833   -2.094414
     39          1    20001034        2.263617   -2.470557   -1.524953
     40          1    20001034        1.599830   -2.029886    0.819822
     41          1    20001034        0.310987   -2.680147   -0.134532
     42          1    20001033        0.566507    0.165787    0.938431
     43          1    20001033       -1.700276    0.430617    0.579386
     44          1    20001034       -1.622409   -2.121949   -1.105717
     45          1    20001034       -2.820988   -0.865989   -1.157676
     46          1    20001034       -3.645406   -2.951682   -0.132845
     47          1    20001034       -2.436780   -2.868236    1.104249
     48          1    20001034       -3.571687   -1.294287    2.331031
     49          1    20001034       -4.943407   -1.880978    1.432593
     50          1    20001034       -4.774572    0.790252    2.802060
     51          1    20001034       -6.138686    0.070134    1.979418
     52          1    20001034       -5.573008    1.681519    1.522001
     53          1    20001029       -2.205629    0.270182    0.742189
     54          1    20001034       -1.559855    3.650847    0.031329
     55          1    20001034       -1.228848    2.191414   -0.894190
     56          1    20001034       -0.848753    2.236123    0.824450
     57          1    20001029       -6.727055    0.215143   -0.056363
     58          1    20001035       -7.747796   -0.282824   -2.062910
     59          1    20001035       -6.222508   -0.878385   -2.710161
     60          1    20001035       -6.522683    0.850846   -2.641784
     61          1    20001029        4.301884    1.387314   -1.732894
     62          1    20001034        7.255339    2.867158   -0.520454
     63          1    20001034        5.720986    3.230346   -1.324340
     64          1    20001034        6.925093    2.232324   -2.126544
 ---------------------------------------------------------------------

 SCF Done:  E(RHF) =  -1295.26739642     A.U. after   14 cycles

 The electronic state is 1-A.
 Alpha  occ. eigenvalues --  -20.53657 -20.52760 -20.51944 -20.51491 -15.59624
 Alpha  occ. eigenvalues --  -15.58875 -15.57647 -15.52696 -11.35971 -11.34946
 Alpha  occ. eigenvalues --  -11.33950 -11.33801 -11.29075 -11.28315 -11.25748
 Alpha  occ. eigenvalues --  -11.25000 -11.24327 -11.24069 -11.22943 -11.22784
 Alpha  occ. eigenvalues --  -11.22763 -11.22738 -11.21735 -11.21734 -11.21502
 Alpha  occ. eigenvalues --  -11.21191 -11.20884 -11.18589  -1.41179  -1.40600
 Alpha  occ. eigenvalues --   -1.38797  -1.38460  -1.28843  -1.25463  -1.23841
 Alpha  occ. eigenvalues --   -1.22179  -1.11629  -1.09820  -1.08619  -1.04678
 Alpha  occ. eigenvalues --   -1.01198  -1.00189  -0.98856  -0.96105  -0.95602
 Alpha  occ. eigenvalues --   -0.95016  -0.93081  -0.90754  -0.87224  -0.85584
 Alpha  occ. eigenvalues --   -0.81799  -0.81478  -0.79029  -0.77976  -0.77267
 Alpha  occ. eigenvalues --   -0.75088  -0.71239  -0.70403  -0.68922  -0.67392
 Alpha  occ. eigenvalues --   -0.66109  -0.65883  -0.64731  -0.64466  -0.63581
 Alpha  occ. eigenvalues --   -0.62937  -0.62509  -0.62134  -0.61718  -0.61000
 Alpha  occ. eigenvalues --   -0.60762  -0.60392  -0.59968  -0.58861  -0.58587
 Alpha  occ. eigenvalues --   -0.58266  -0.58196  -0.57364  -0.56973  -0.56297
 Alpha  occ. eigenvalues --   -0.55837  -0.55005  -0.54683  -0.54623  -0.53954
 Alpha  occ. eigenvalues --   -0.52919  -0.52855  -0.52633  -0.51988  -0.51321
 Alpha  occ. eigenvalues --   -0.51071  -0.50119  -0.49339  -0.48135  -0.47583
 Alpha  occ. eigenvalues --   -0.47379  -0.46564  -0.45193  -0.42914  -0.42723
 Alpha  occ. eigenvalues --   -0.41993  -0.40987  -0.39936  -0.39341  -0.38430
 Alpha  occ. eigenvalues --   -0.37437  -0.36803  -0.34171
 Alpha virt. eigenvalues --    0.16359   0.18790   0.18851   0.19838   0.20147
 Alpha virt. eigenvalues --    0.20583   0.22133   0.22779   0.23919   0.24849
 Alpha virt. eigenvalues --    0.25393   0.26207   0.26595   0.26946   0.27840

 Mulliken atomic charges:
              1
     1  C   -0.279967
     2  N   -0.784480
     3  C    0.822094
     4  O   -0.628468
     5  C    0.102328
     6  C   -0.472892
     7  C   -0.334602
     8  C   -0.314886
     9  C   -0.369922
    10  C   -0.203724
    11  C   -0.149288
    12  C   -0.462401
    13  C   -0.312534
    14  C   -0.328203
    15  C    0.079216
    16  C   -0.502928
    17  N   -0.845472
    18  C    0.767181
    19  C   -0.625923
    20  O   -0.627226
    21  C    0.846040
    22  O   -0.664357
    23  N   -0.803770
    24  C   -0.277881
    25  N   -0.843358
    26  C    0.744437
    27  C   -0.588739
    28  O   -0.591971
    29  H    0.187819
    30  H    0.197473
    31  H    0.162756
    32  H    0.391709
    33  H    0.198446
    34  H    0.145079
    35  H    0.212660
    36  H    0.163860
    37  H    0.179315
    38  H    0.172023
    39  H    0.180931
    40  H    0.211752
    41  H    0.179616
    42  H    0.181135
    43  H    0.219362
    44  H    0.167654
    45  H    0.342948
    46  H    0.166384
    47  H    0.170704
    48  H    0.185455
    49  H    0.178977
    50  H    0.184984
    51  H    0.142042
    52  H    0.223676
    53  H    0.354669
    54  H    0.218094
    55  H    0.213049
    56  H    0.181860
    57  H    0.401981
    58  H    0.168750
    59  H    0.197391
    60  H    0.187739
    61  H    0.383229
    62  H    0.218716
    63  H    0.177751
    64  H    0.201705
 Sum of Mulliken atomic charges =   0.00000

 Dipole moment (field-independent basis, Debye):
    X=             -2.0972    Y=              2.2083    Z=             -1.8078  Tot=              3.5416
 Quadrupole moment (field-independent basis, Debye-Ang):
   XX=           -172.0828   YY=           -178.3774   ZZ=           -165.9944
   XY=             35.9074   XZ=            -20.2086   YZ=              2.3739

 Normal termination of Gaussian 09 at Thu Dec  5 19:30:29 2019.
