 Gaussian 09, Revision A.02,
 Gaussian 09:  EM64L-G09RevA.02 11-Jun-2009

 ---------------------------------
 #SP HF/6-31G* Geom=(ModRedundant)
 ---------------------------------

 ------------
 paramfit run
 ------------
 Symbolic Z-matrix:
 Charge =  0 Multiplicity = 1

                         Standard orientation:
 ---------------------------------------------------------------------
 Center     Atomic      Atomic             Coordinates (Angstroms)
 Number     Number       Type             X           Y           Z
 ---------------------------------------------------------------------
      1          6    20001001       -3.088420    2.054566   -2.098192
      2          7    20001014       -3.151082    1.204819   -0.927188
      3          6    20001002       -3.584345   -0.072337   -1.042358
      4          8    20001024       -3.712351   -0.617149   -2.103744
      5          6    90000001       -3.778188   -0.849737    0.271971
      6          6    90000002       -4.684138   -2.060217    0.023305
      7          6    90000002       -2.400987   -1.279253    0.846805
      8          6    90000002       -1.497293   -2.202496    0.009789
      9          6    90000002       -0.622109   -1.550920   -1.079310
     10          6    20001004        0.303060   -0.474462   -0.562029
     11          6    20001004        1.586615   -0.590213   -0.262288
     12          6    90000002        2.444743   -1.828510   -0.362241
     13          6    90000002        3.373264   -1.858607   -1.589640
     14          6    90000002        4.377354   -0.698186   -1.601396
     15          6    90000002        4.185949    0.440922   -0.566773
     16          6    90000002        5.346080    1.433227   -0.748099
     17          7    20001014        2.924347    1.113449   -0.845332
     18          6    20001002        2.423743    2.066513   -0.006212
     19          6    20001001        0.961951    2.392098   -0.211055
     20          8    20001024        3.087657    2.609369    0.832636
     21          6    20001002        4.099661   -0.185257    0.843609
     22          8    20001024        3.056756   -0.622832    1.249572
     23          7    20001014        5.249656   -0.309018    1.540872
     24          6    20001001        5.232396   -0.840306    2.888328
     25          7    20001014       -4.356274    0.023555    1.303770
     26          6    20001002       -5.565088    0.642690    1.180829
     27          6    20001001       -6.137494    1.196945    2.468956
     28          8    20001024       -6.130923    0.753222    0.130232
     29          1    20001035       -4.074004    2.263195   -2.498252
     30          1    20001035       -2.500727    1.574188   -2.866681
     31          1    20001035       -2.610978    2.986783   -1.823651
     32          1    20001029       -3.299231    1.646892   -0.050314
     33          1    20001034       -4.280924   -2.698382   -0.748120
     34          1    20001034       -4.782697   -2.632195    0.941109
     35          1    20001034       -5.663928   -1.737411   -0.297218
     36          1    20001034       -2.621203   -1.802560    1.774639
     37          1    20001034       -1.850366   -0.386058    1.124833
     38          1    20001034       -0.830982   -2.697595    0.710164
     39          1    20001034       -2.090732   -2.987451   -0.447430
     40          1    20001034       -1.247537   -1.135472   -1.858801
     41          1    20001034       -0.049103   -2.344174   -1.546479
     42          1    20001033       -0.149326    0.495283   -0.431434
     43          1    20001033        2.091912    0.294627    0.091963
     44          1    20001034        1.823436   -2.715591   -0.385250
     45          1    20001034        3.048661   -1.904794    0.541118
     46          1    20001034        3.888267   -2.815239   -1.591066
     47          1    20001034        2.774914   -1.841255   -2.491032
     48          1    20001034        4.374941   -0.228587   -2.582725
     49          1    20001034        5.372621   -1.100091   -1.452180
     50          1    20001034        5.260630    1.891851   -1.726334
     51          1    20001034        6.305416    0.927735   -0.708973
     52          1    20001034        5.320617    2.216549   -0.005469
     53          1    20001029        2.236695    0.555723   -1.297868
     54          1    20001034        0.755734    3.367198    0.203333
     55          1    20001034        0.365881    1.655257    0.318936
     56          1    20001034        0.681804    2.370546   -1.258641
     57          1    20001029        6.019520    0.264516    1.288527
     58          1    20001035        6.253660   -0.970215    3.221591
     59          1    20001035        4.734551   -1.798802    2.896195
     60          1    20001035        4.714103   -0.179109    3.575311
     61          1    20001029       -4.033586   -0.136736    2.232062
     62          1    20001034       -6.850573    1.972156    2.229082
     63          1    20001034       -5.369071    1.596217    3.121382
     64          1    20001034       -6.654565    0.403720    2.999271
 ---------------------------------------------------------------------

 SCF Done:  E(RHF) =  -1295.34393793     A.U. after   15 cycles

 The electronic state is 1-A.
 Alpha  occ. eigenvalues --  -20.53232 -20.53173 -20.52534 -20.51320 -15.59387
 Alpha  occ. eigenvalues --  -15.59046 -15.57111 -15.56546 -11.35485 -11.35224
 Alpha  occ. eigenvalues --  -11.35028 -11.33334 -11.29630 -11.28357 -11.26302
 Alpha  occ. eigenvalues --  -11.24646 -11.23925 -11.23620 -11.23060 -11.22519
 Alpha  occ. eigenvalues --  -11.22496 -11.21824 -11.21378 -11.20270 -11.19874
 Alpha  occ. eigenvalues --  -11.18958 -11.18371 -11.17634  -1.43251  -1.40105
 Alpha  occ. eigenvalues --   -1.39945  -1.38182  -1.26503  -1.24874  -1.24684
 Alpha  occ. eigenvalues --   -1.21646  -1.09821  -1.09210  -1.07371  -1.03514
 Alpha  occ. eigenvalues --   -1.00395  -1.00046  -0.98459  -0.96088  -0.95146
 Alpha  occ. eigenvalues --   -0.94194  -0.91771  -0.87766  -0.86220  -0.83517
 Alpha  occ. eigenvalues --   -0.81391  -0.79936  -0.78917  -0.78376  -0.76742
 Alpha  occ. eigenvalues --   -0.75736  -0.70690  -0.70587  -0.68939  -0.68422
 Alpha  occ. eigenvalues --   -0.67858  -0.66537  -0.65312  -0.64737  -0.63668
 Alpha  occ. eigenvalues --   -0.63202  -0.62350  -0.62003  -0.61701  -0.61248
 Alpha  occ. eigenvalues --   -0.60577  -0.59781  -0.59610  -0.58702  -0.58543
 Alpha  occ. eigenvalues --   -0.57824  -0.57519  -0.57233  -0.56892  -0.56168
 Alpha  occ. eigenvalues --   -0.56125  -0.55363  -0.54523  -0.54214  -0.53616
 Alpha  occ. eigenvalues --   -0.53490  -0.53088  -0.52193  -0.51763  -0.50771
 Alpha  occ. eigenvalues --   -0.50670  -0.50361  -0.49145  -0.48064  -0.47435
 Alpha  occ. eigenvalues --   -0.46410  -0.45808  -0.44772  -0.44258  -0.42909
 Alpha  occ. eigenvalues --   -0.42306  -0.41764  -0.41324  -0.38757  -0.37873
 Alpha  occ. eigenvalues --   -0.35953  -0.33587  -0.31379
 Alpha virt. eigenvalues --    0.16478   0.18287   0.19265   0.20112   0.20527
 Alpha virt. eigenvalues --    0.21010   0.22219   0.23058   0.24436   0.24932
 Alpha virt. eigenvalues --    0.25464   0.25932   0.26445   0.27413   0.28027

 Mulliken atomic charges:
              1
     1  C   -0.279610
     2  N   -0.784485
     3  C    0.824849
     4  O   -0.629136
     5  C    0.101243
     6  C   -0.472212
     7  C   -0.332023
     8  C   -0.307937
     9  C   -0.361162
    10  C   -0.227357
    11  C   -0.216883
    12  C   -0.403611
    13  C   -0.323247
    14  C   -0.320114
    15  C    0.077712
    16  C   -0.502179
    17  N   -0.840099
    18  C    0.741575
    19  C   -0.603610
    20  O   -0.605805
    21  C    0.813795
    22  O   -0.631644
    23  N   -0.809631
    24  C   -0.278422
    25  N   -0.843120
    26  C    0.744594
    27  C   -0.588601
    28  O   -0.593298
    29  H    0.186980
    30  H    0.196493
    31  H    0.160439
    32  H    0.391332
    33  H    0.199068
    34  H    0.143498
    35  H    0.209956
    36  H    0.159376
    37  H    0.180816
    38  H    0.167339
    39  H    0.171668
    40  H    0.197236
    41  H    0.165620
    42  H    0.168090
    43  H    0.254067
    44  H    0.158124
    45  H    0.270379
    46  H    0.169267
    47  H    0.168397
    48  H    0.188318
    49  H    0.179827
    50  H    0.191326
    51  H    0.148678
    52  H    0.225472
    53  H    0.435155
    54  H    0.210384
    55  H    0.222476
    56  H    0.195447
    57  H    0.400782
    58  H    0.171446
    59  H    0.195905
    60  H    0.188075
    61  H    0.383173
    62  H    0.217274
    63  H    0.177874
    64  H    0.200662
 Sum of Mulliken atomic charges =   0.00000

 Dipole moment (field-independent basis, Debye):
    X=              4.6515    Y=              0.1792    Z=              4.1321  Tot=              6.2244
 Quadrupole moment (field-independent basis, Debye-Ang):
   XX=           -163.4081   YY=           -173.6345   ZZ=           -168.3362
   XY=            -11.2381   XZ=            -26.1875   YZ=             -7.2037

 Normal termination of Gaussian 09 at Thu Dec  5 19:09:36 2019.
