 Gaussian 09, Revision A.02,
 Gaussian 09:  EM64L-G09RevA.02 11-Jun-2009

 ---------------------------------
 #SP HF/6-31G* Geom=(ModRedundant)
 ---------------------------------

 ------------
 paramfit run
 ------------
 Symbolic Z-matrix:
 Charge =  0 Multiplicity = 1

                         Standard orientation:
 ---------------------------------------------------------------------
 Center     Atomic      Atomic             Coordinates (Angstroms)
 Number     Number       Type             X           Y           Z
 ---------------------------------------------------------------------
      1          6    20001001       -2.886438    2.523331   -1.460951
      2          7    20001014       -3.003858    1.395551   -0.560079
      3          6    20001002       -3.463676    0.208730   -1.020655
      4          8    20001024       -3.573089   -0.030572   -2.191343
      5          6    90000001       -3.714710   -0.883352    0.034677
      6          6    90000002       -4.641343   -1.955961   -0.547304
      7          6    90000002       -2.365695   -1.492157    0.504908
      8          6    90000002       -1.459763   -2.187386   -0.527361
      9          6    90000002       -0.537526   -1.297275   -1.383994
     10          6    20001004        0.397184   -0.425713   -0.578405
     11          6    20001004        1.668200   -0.656259   -0.291833
     12          6    90000002        2.499315   -1.849349   -0.698695
     13          6    90000002        3.462784   -1.581044   -1.868869
     14          6    90000002        4.494008   -0.490554   -1.548991
     15          6    90000002        4.179597    0.491899   -0.391157
     16          6    90000002        5.386005    1.432636   -0.239355
     17          7    20001014        3.000692    1.268768   -0.749192
     18          6    20001002        2.405810    2.114017    0.142283
     19          6    20001001        1.006222    2.548786   -0.227762
     20          8    20001024        2.946683    2.488175    1.145579
     21          6    20001002        3.851224   -0.330194    0.875753
     22          8    20001024        2.743431   -0.763113    1.046944
     23          7    20001014        4.872093   -0.620865    1.710808
     24          6    20001001        4.624913   -1.343872    2.941403
     25          7    20001014       -4.302219   -0.297969    1.248593
     26          6    20001002       -5.491847    0.368423    1.268053
     27          6    20001001       -6.088830    0.578150    2.644187
     28          8    20001024       -6.023559    0.771217    0.272473
     29          1    20001035       -3.854527    2.860854   -1.812850
     30          1    20001035       -2.287808    2.246378   -2.316324
     31          1    20001035       -2.395367    3.334094   -0.937629
     32          1    20001029       -3.167375    1.593317    0.399315
     33          1    20001034       -4.230713   -2.378516   -1.451607
     34          1    20001034       -4.780555   -2.747755    0.182709
     35          1    20001034       -5.603289   -1.529706   -0.792035
     36          1    20001034       -2.625621   -2.235975    1.254838
     37          1    20001034       -1.802527   -0.722171    1.022829
     38          1    20001034       -0.826397   -2.870876    0.030590
     39          1    20001034       -2.057850   -2.804184   -1.190102
     40          1    20001034       -1.129584   -0.670793   -2.038479
     41          1    20001034        0.030090   -1.955266   -2.032603
     42          1    20001033       -0.035754    0.487993   -0.204479
     43          1    20001033        2.183623    0.086834    0.296310
     44          1    20001034        1.858107   -2.678971   -0.970807
     45          1    20001034        3.074252   -2.181225    0.164959
     46          1    20001034        3.954782   -2.518328   -2.113436
     47          1    20001034        2.891955   -1.306651   -2.746191
     48          1    20001034        4.661973    0.118476   -2.434656
     49          1    20001034        5.439420   -0.965961   -1.315466
     50          1    20001034        5.471170    2.035085   -1.136228
     51          1    20001034        6.309896    0.873284   -0.134791
     52          1    20001034        5.269654    2.097594    0.603279
     53          1    20001029        2.374960    0.824103   -1.381207
     54          1    20001034        0.769606    3.461937    0.296862
     55          1    20001034        0.309952    1.776662    0.085540
     56          1    20001034        0.894280    2.698447   -1.296150
     57          1    20001029        5.690680   -0.060940    1.669483
     58          1    20001035        5.575951   -1.579436    3.400703
     59          1    20001035        4.100612   -2.263153    2.725399
     60          1    20001035        4.026910   -0.763281    3.636429
     61          1    20001029       -4.011039   -0.708776    2.107662
     62          1    20001034       -6.775920    1.410752    2.603527
     63          1    20001034       -5.330806    0.766094    3.396269
     64          1    20001034       -6.640029   -0.311121    2.932595
 ---------------------------------------------------------------------

 SCF Done:  E(RHF) =  -1295.26166817     A.U. after   15 cycles

 The electronic state is 1-A.
 Alpha  occ. eigenvalues --  -20.53693 -20.52942 -20.52794 -20.50792 -15.60954
 Alpha  occ. eigenvalues --  -15.58602 -15.56839 -15.56588 -11.37222 -11.35110
 Alpha  occ. eigenvalues --  -11.34594 -11.32809 -11.30245 -11.27795 -11.27186
 Alpha  occ. eigenvalues --  -11.24209 -11.24103 -11.23633 -11.23026 -11.22332
 Alpha  occ. eigenvalues --  -11.22280 -11.21690 -11.20273 -11.19948 -11.19793
 Alpha  occ. eigenvalues --  -11.18588 -11.17154 -11.15913  -1.47779  -1.39717
 Alpha  occ. eigenvalues --   -1.39704  -1.37662  -1.26668  -1.24974  -1.24407
 Alpha  occ. eigenvalues --   -1.21141  -1.09954  -1.08366  -1.07004  -1.03013
 Alpha  occ. eigenvalues --   -1.00177  -0.99425  -0.98226  -0.97102  -0.94681
 Alpha  occ. eigenvalues --   -0.94114  -0.91712  -0.88098  -0.87106  -0.83853
 Alpha  occ. eigenvalues --   -0.81822  -0.80492  -0.79523  -0.77516  -0.76225
 Alpha  occ. eigenvalues --   -0.74438  -0.72319  -0.70169  -0.69406  -0.68152
 Alpha  occ. eigenvalues --   -0.67796  -0.67542  -0.65646  -0.64804  -0.63601
 Alpha  occ. eigenvalues --   -0.63094  -0.62130  -0.61861  -0.61665  -0.61360
 Alpha  occ. eigenvalues --   -0.60210  -0.59854  -0.59389  -0.58865  -0.58387
 Alpha  occ. eigenvalues --   -0.57843  -0.57540  -0.57230  -0.57000  -0.56531
 Alpha  occ. eigenvalues --   -0.55909  -0.55110  -0.54754  -0.53847  -0.53563
 Alpha  occ. eigenvalues --   -0.53316  -0.52894  -0.51640  -0.51373  -0.50780
 Alpha  occ. eigenvalues --   -0.50172  -0.49784  -0.49175  -0.47350  -0.47027
 Alpha  occ. eigenvalues --   -0.46491  -0.45631  -0.45159  -0.43355  -0.42743
 Alpha  occ. eigenvalues --   -0.41888  -0.41299  -0.40818  -0.38806  -0.38271
 Alpha  occ. eigenvalues --   -0.37352  -0.31351  -0.26326
 Alpha virt. eigenvalues --    0.15979   0.18762   0.19634   0.20263   0.21003
 Alpha virt. eigenvalues --    0.21179   0.22235   0.23481   0.23967   0.25012
 Alpha virt. eigenvalues --    0.25533   0.26498   0.26690   0.27609   0.27972

 Mulliken atomic charges:
              1
     1  C   -0.278809
     2  N   -0.783754
     3  C    0.826362
     4  O   -0.630515
     5  C    0.100810
     6  C   -0.471412
     7  C   -0.330080
     8  C   -0.302269
     9  C   -0.352868
    10  C   -0.292572
    11  C   -0.133479
    12  C   -0.384239
    13  C   -0.318512
    14  C   -0.317703
    15  C    0.078793
    16  C   -0.505019
    17  N   -0.796894
    18  C    0.742752
    19  C   -0.570248
    20  O   -0.620731
    21  C    0.810883
    22  O   -0.627184
    23  N   -0.803561
    24  C   -0.283703
    25  N   -0.842579
    26  C    0.744918
    27  C   -0.588427
    28  O   -0.594067
    29  H    0.184969
    30  H    0.195961
    31  H    0.160573
    32  H    0.391046
    33  H    0.199476
    34  H    0.141795
    35  H    0.207803
    36  H    0.154033
    37  H    0.183150
    38  H    0.156699
    39  H    0.162214
    40  H    0.190659
    41  H    0.151154
    42  H    0.141412
    43  H    0.277180
    44  H    0.170321
    45  H    0.205350
    46  H    0.170792
    47  H    0.172729
    48  H    0.190644
    49  H    0.177698
    50  H    0.196304
    51  H    0.148799
    52  H    0.227749
    53  H    0.419749
    54  H    0.199184
    55  H    0.210693
    56  H    0.186434
    57  H    0.404626
    58  H    0.176051
    59  H    0.199978
    60  H    0.193122
    61  H    0.382342
    62  H    0.216317
    63  H    0.177438
    64  H    0.199663
 Sum of Mulliken atomic charges =   0.00000

 Dipole moment (field-independent basis, Debye):
    X=              6.1922    Y=             -1.5316    Z=              4.9741  Tot=              8.0889
 Quadrupole moment (field-independent basis, Debye-Ang):
   XX=           -159.8183   YY=           -171.7549   ZZ=           -168.4426
   XY=             -5.1825   XZ=            -23.9351   YZ=             -8.0871

 Normal termination of Gaussian 09 at Thu Dec  5 19:01:41 2019.
