 Gaussian 09, Revision A.02,
 Gaussian 09:  EM64L-G09RevA.02 11-Jun-2009

 ---------------------------------
 #SP HF/6-31G* Geom=(ModRedundant)
 ---------------------------------

 ------------
 paramfit run
 ------------
 Symbolic Z-matrix:
 Charge =  0 Multiplicity = 1

                         Standard orientation:
 ---------------------------------------------------------------------
 Center     Atomic      Atomic             Coordinates (Angstroms)
 Number     Number       Type             X           Y           Z
 ---------------------------------------------------------------------
      1          6    20001001        4.223181   -1.394085    2.731735
      2          7    20001014        4.178490   -0.531712    1.569168
      3          6    20001002        4.429083   -1.041458    0.340563
      4          8    20001024        4.469989   -2.221587    0.127564
      5          6    90000001        4.525719   -0.027621   -0.813639
      6          6    90000002        5.252373   -0.668965   -2.000439
      7          6    90000002        3.107806    0.463497   -1.213547
      8          6    90000002        2.076663   -0.562229   -1.717797
      9          6    90000002        1.290011   -1.363879   -0.661780
     10          6    20001004        0.528297   -0.504992    0.320250
     11          6    20001004       -0.755956   -0.188189    0.287279
     12          6    90000002       -1.778642   -0.606385   -0.741787
     13          6    90000002       -2.714098   -1.738952   -0.281592
     14          6    90000002       -3.547391   -1.355849    0.948761
     15          6    90000002       -4.501501   -0.139019    0.831942
     16          6    90000002       -5.254924   -0.009461    2.165740
     17          7    20001014       -3.701859    1.057674    0.608269
     18          6    20001002       -4.281804    2.260002    0.323442
     19          6    20001001       -3.346030    3.299213   -0.250296
     20          8    20001024       -5.445456    2.482662    0.511800
     21          6    20001002       -5.415580   -0.347128   -0.396828
     22          8    20001024       -5.030284   -0.050929   -1.495802
     23          7    20001014       -6.601180   -0.961124   -0.193505
     24          6    20001001       -7.527290   -1.141744   -1.292549
     25          7    20001014        5.229359    1.185647   -0.372841
     26          6    20001002        6.511197    1.190229    0.092501
     27          6    20001001        7.167374    2.553889    0.155608
     28          8    20001024        7.076776    0.192084    0.438865
     29          1    20001035        5.224297   -1.763977    2.921203
     30          1    20001035        3.567118   -2.239442    2.584507
     31          1    20001035        3.882473   -0.832142    3.592252
     32          1    20001029        4.395010    0.428002    1.704644
     33          1    20001034        4.757054   -1.573172   -2.319818
     34          1    20001034        5.279367    0.032257   -2.829171
     35          1    20001034        6.264369   -0.928910   -1.726180
     36          1    20001034        3.262128    1.182513   -2.015059
     37          1    20001034        2.689247    1.020933   -0.381469
     38          1    20001034        1.354820   -0.006843   -2.309494
     39          1    20001034        2.550933   -1.260737   -2.399360
     40          1    20001034        1.959549   -2.016225   -0.116320
     41          1    20001034        0.607942   -2.015138   -1.197018
     42          1    20001033        1.112193   -0.116438    1.138910
     43          1    20001033       -1.130060    0.437183    1.082715
     44          1    20001034       -1.286784   -0.922345   -1.653770
     45          1    20001034       -2.378592    0.263379   -1.006669
     46          1    20001034       -3.356940   -1.997237   -1.118502
     47          1    20001034       -2.127826   -2.623995   -0.072275
     48          1    20001034       -2.882737   -1.148838    1.784774
     49          1    20001034       -4.151793   -2.208048    1.236518
     50          1    20001034       -4.542048    0.235281    2.944516
     51          1    20001034       -5.729080   -0.945575    2.441869
     52          1    20001034       -5.997032    0.773957    2.130110
     53          1    20001029       -2.823593    0.905306    0.167650
     54          1    20001034       -3.769167    4.279952   -0.094834
     55          1    20001034       -3.250142    3.126503   -1.318052
     56          1    20001034       -2.358356    3.249577    0.195144
     57          1    20001029       -6.978758   -0.967807    0.724482
     58          1    20001035       -8.351792   -1.754473   -0.952434
     59          1    20001035       -7.029938   -1.642542   -2.110149
     60          1    20001035       -7.912492   -0.193920   -1.654495
     61          1    20001029        4.896475    2.040065   -0.761047
     62          1    20001034        7.978852    2.518272    0.867792
     63          1    20001034        6.468145    3.333358    0.436779
     64          1    20001034        7.574361    2.798791   -0.820193
 ---------------------------------------------------------------------

 SCF Done:  E(RHF) =  -1295.60253193     A.U. after   14 cycles

 The electronic state is 1-A.
 Alpha  occ. eigenvalues --  -20.53730 -20.52051 -20.51995 -20.51991 -15.59704
 Alpha  occ. eigenvalues --  -15.58183 -15.57672 -15.57031 -11.36047 -11.34260
 Alpha  occ. eigenvalues --  -11.34001 -11.33973 -11.29154 -11.28618 -11.25283
 Alpha  occ. eigenvalues --  -11.25018 -11.24410 -11.24166 -11.23322 -11.22899
 Alpha  occ. eigenvalues --  -11.22703 -11.22621 -11.22468 -11.22419 -11.22311
 Alpha  occ. eigenvalues --  -11.21899 -11.21844 -11.20960  -1.40671  -1.39585
 Alpha  occ. eigenvalues --   -1.38849  -1.38290  -1.25537  -1.23849  -1.22912
 Alpha  occ. eigenvalues --   -1.22212  -1.10977  -1.09297  -1.07540  -1.04516
 Alpha  occ. eigenvalues --   -1.01353  -0.99544  -0.98917  -0.95643  -0.95402
 Alpha  occ. eigenvalues --   -0.94726  -0.92295  -0.87655  -0.86265  -0.83220
 Alpha  occ. eigenvalues --   -0.81892  -0.79480  -0.78489  -0.77314  -0.77184
 Alpha  occ. eigenvalues --   -0.72672  -0.71956  -0.71285  -0.69047  -0.67713
 Alpha  occ. eigenvalues --   -0.66504  -0.65970  -0.64817  -0.64238  -0.63966
 Alpha  occ. eigenvalues --   -0.62819  -0.62523  -0.61950  -0.61375  -0.61062
 Alpha  occ. eigenvalues --   -0.60766  -0.60181  -0.59617  -0.58976  -0.58591
 Alpha  occ. eigenvalues --   -0.58320  -0.58199  -0.57449  -0.56830  -0.56187
 Alpha  occ. eigenvalues --   -0.55650  -0.55074  -0.55023  -0.54654  -0.53795
 Alpha  occ. eigenvalues --   -0.53301  -0.53144  -0.52898  -0.52143  -0.51196
 Alpha  occ. eigenvalues --   -0.51081  -0.50455  -0.49958  -0.49501  -0.48569
 Alpha  occ. eigenvalues --   -0.48495  -0.47134  -0.46375  -0.44832  -0.42968
 Alpha  occ. eigenvalues --   -0.42061  -0.41624  -0.40972  -0.39405  -0.38939
 Alpha  occ. eigenvalues --   -0.38460  -0.38301  -0.34886
 Alpha virt. eigenvalues --    0.16872   0.18719   0.19439   0.19861   0.20102
 Alpha virt. eigenvalues --    0.21363   0.21977   0.23043   0.23651   0.24094
 Alpha virt. eigenvalues --    0.25253   0.25762   0.26472   0.27141   0.27815

 Mulliken atomic charges:
              1
     1  C   -0.279810
     2  N   -0.783728
     3  C    0.821752
     4  O   -0.628601
     5  C    0.102422
     6  C   -0.472829
     7  C   -0.334721
     8  C   -0.312618
     9  C   -0.374339
    10  C   -0.186460
    11  C   -0.182365
    12  C   -0.423442
    13  C   -0.298873
    14  C   -0.336952
    15  C    0.082748
    16  C   -0.508466
    17  N   -0.814351
    18  C    0.770947
    19  C   -0.602409
    20  O   -0.616161
    21  C    0.824265
    22  O   -0.640957
    23  N   -0.807234
    24  C   -0.275711
    25  N   -0.843187
    26  C    0.744505
    27  C   -0.588727
    28  O   -0.591745
    29  H    0.187446
    30  H    0.197563
    31  H    0.163043
    32  H    0.391685
    33  H    0.198481
    34  H    0.144836
    35  H    0.212856
    36  H    0.162749
    37  H    0.181222
    38  H    0.166751
    39  H    0.180853
    40  H    0.213759
    41  H    0.174071
    42  H    0.183322
    43  H    0.181119
    44  H    0.187367
    45  H    0.204062
    46  H    0.193132
    47  H    0.173222
    48  H    0.186733
    49  H    0.179528
    50  H    0.183867
    51  H    0.148674
    52  H    0.226100
    53  H    0.411057
    54  H    0.211791
    55  H    0.207800
    56  H    0.177385
    57  H    0.396709
    58  H    0.165752
    59  H    0.197577
    60  H    0.185728
    61  H    0.382857
    62  H    0.218864
    63  H    0.177409
    64  H    0.201679
 Sum of Mulliken atomic charges =   0.00000

 Dipole moment (field-independent basis, Debye):
    X=              0.0107    Y=              3.2062    Z=              1.1641  Tot=              3.4110
 Quadrupole moment (field-independent basis, Debye-Ang):
   XX=           -190.5390   YY=           -172.5226   ZZ=           -166.6126
   XY=             52.3429   XZ=            -10.9287   YZ=             -3.2352

 Normal termination of Gaussian 09 at Thu Dec  5 18:58:51 2019.
