 Gaussian 09, Revision A.02,
 Gaussian 09:  EM64L-G09RevA.02 11-Jun-2009

 ---------------------------------
 #SP HF/6-31G* Geom=(ModRedundant)
 ---------------------------------

 ------------
 paramfit run
 ------------
 Symbolic Z-matrix:
 Charge =  0 Multiplicity = 1

                         Standard orientation:
 ---------------------------------------------------------------------
 Center     Atomic      Atomic             Coordinates (Angstroms)
 Number     Number       Type             X           Y           Z
 ---------------------------------------------------------------------
      1          6    20001001        3.480848    0.672890    2.905244
      2          7    20001014        3.466678    0.555964    1.461854
      3          6    20001002        3.843156   -0.604137    0.874879
      4          8    20001024        3.979004   -1.624757    1.491017
      5          6    90000001        3.958814   -0.587775   -0.659963
      6          6    90000002        4.814561   -1.771594   -1.122685
      7          6    90000002        2.545561   -0.622650   -1.302694
      8          6    90000002        1.626568   -1.825153   -1.021495
      9          6    90000002        0.817655   -1.815605    0.290834
     10          6    20001004       -0.072033   -0.605845    0.455797
     11          6    20001004       -1.368425   -0.518387    0.205841
     12          6    90000002       -2.279942   -1.607048   -0.307680
     13          6    90000002       -3.169619   -2.250012    0.771504
     14          6    90000002       -4.117465   -1.242208    1.435456
     15          6    90000002       -4.236225    0.169850    0.805668
     16          6    90000002       -5.283492    0.952762    1.614202
     17          7    20001014       -2.944865    0.835189    0.911708
     18          6    20001002       -2.711346    2.038827    0.311889
     19          6    20001001       -1.252990    2.415309    0.184364
     20          8    20001024       -3.591803    2.749775   -0.086219
     21          6    20001002       -4.578089    0.012473   -0.693361
     22          8    20001024       -3.706292   -0.186397   -1.496076
     23          7    20001014       -5.884380    0.004876   -1.036185
     24          6    20001001       -6.272797   -0.087770   -2.428575
     25          7    20001014        4.544229    0.681175   -1.116566
     26          6    20001002        5.783956    1.117130   -0.752296
     27          6    20001001        6.340682    2.247410   -1.592916
     28          8    20001024        6.387245    0.651119    0.172375
     29          1    20001035        4.487256    0.619464    3.304291
     30          1    20001035        2.895899   -0.123410    3.341666
     31          1    20001035        3.039093    1.622636    3.179450
     32          1    20001029        3.607567    1.386340    0.935631
     33          1    20001034        4.406510   -2.708417   -0.775135
     34          1    20001034        4.857219   -1.784150   -2.207701
     35          1    20001034        5.818011   -1.686029   -0.731927
     36          1    20001034        2.711642   -0.591306   -2.377242
     37          1    20001034        2.028810    0.297329   -1.047964
     38          1    20001034        0.916039   -1.867337   -1.841853
     39          1    20001034        2.196792   -2.747068   -1.069353
     40          1    20001034        1.486140   -1.881631    1.139440
     41          1    20001034        0.223220   -2.722368    0.307007
     42          1    20001033        0.420861    0.279121    0.824584
     43          1    20001033       -1.842722    0.433086    0.388878
     44          1    20001034       -1.700387   -2.390684   -0.780435
     45          1    20001034       -2.915001   -1.187582   -1.087002
     46          1    20001034       -3.728498   -3.055058    0.302535
     47          1    20001034       -2.542938   -2.718618    1.518839
     48          1    20001034       -3.819781   -1.094991    2.471432
     49          1    20001034       -5.114397   -1.666518    1.456374
     50          1    20001034       -4.907539    1.097892    2.620273
     51          1    20001034       -6.213943    0.399919    1.691695
     52          1    20001034       -5.475779    1.923819    1.183139
     53          1    20001029       -2.156994    0.229718    0.948810
     54          1    20001034       -1.173729    3.484521    0.059604
     55          1    20001034       -0.846502    1.930578   -0.698205
     56          1    20001034       -0.673447    2.101219    1.045678
     57          1    20001029       -6.540514    0.403690   -0.407101
     58          1    20001035       -7.347747   -0.200440   -2.480630
     59          1    20001035       -5.805783   -0.950240   -2.880979
     60          1    20001035       -5.978822    0.794347   -2.988223
     61          1    20001029        4.185236    1.035321   -1.975199
     62          1    20001034        7.096458    2.767328   -1.022424
     63          1    20001034        5.571549    2.945932   -1.902838
     64          1    20001034        6.803079    1.834437   -2.483671
 ---------------------------------------------------------------------

 SCF Done:  E(RHF) =  -1295.25052283     A.U. after   15 cycles

 The electronic state is 1-A.
 Alpha  occ. eigenvalues --  -20.53463 -20.53386 -20.52267 -20.51671 -15.59531
 Alpha  occ. eigenvalues --  -15.59397 -15.57404 -15.53733 -11.35778 -11.35696
 Alpha  occ. eigenvalues --  -11.34612 -11.33683 -11.29112 -11.28791 -11.26213
 Alpha  occ. eigenvalues --  -11.24817 -11.24170 -11.23695 -11.23141 -11.22867
 Alpha  occ. eigenvalues --  -11.22251 -11.22037 -11.21782 -11.21305 -11.20898
 Alpha  occ. eigenvalues --  -11.20636 -11.17941 -11.16783  -1.42655  -1.40401
 Alpha  occ. eigenvalues --   -1.39520  -1.38529  -1.30429  -1.25228  -1.24616
 Alpha  occ. eigenvalues --   -1.21941  -1.11287  -1.09711  -1.08060  -1.04148
 Alpha  occ. eigenvalues --   -1.00947  -1.00188  -0.98829  -0.96137  -0.95393
 Alpha  occ. eigenvalues --   -0.94725  -0.92696  -0.89785  -0.87535  -0.84996
 Alpha  occ. eigenvalues --   -0.82417  -0.81382  -0.79036  -0.77725  -0.77022
 Alpha  occ. eigenvalues --   -0.76138  -0.71005  -0.70835  -0.68890  -0.67843
 Alpha  occ. eigenvalues --   -0.66568  -0.65695  -0.64863  -0.64390  -0.63948
 Alpha  occ. eigenvalues --   -0.62993  -0.62568  -0.62241  -0.61365  -0.61069
 Alpha  occ. eigenvalues --   -0.60852  -0.60630  -0.59729  -0.58753  -0.58662
 Alpha  occ. eigenvalues --   -0.58291  -0.57975  -0.57327  -0.56839  -0.56498
 Alpha  occ. eigenvalues --   -0.55957  -0.55282  -0.55175  -0.54444  -0.53963
 Alpha  occ. eigenvalues --   -0.52962  -0.52571  -0.52237  -0.51599  -0.51005
 Alpha  occ. eigenvalues --   -0.50865  -0.50823  -0.48931  -0.47728  -0.47541
 Alpha  occ. eigenvalues --   -0.46848  -0.46353  -0.45084  -0.43482  -0.42677
 Alpha  occ. eigenvalues --   -0.41742  -0.41656  -0.41255  -0.39100  -0.38178
 Alpha  occ. eigenvalues --   -0.36444  -0.34111  -0.32705
 Alpha virt. eigenvalues --    0.15822   0.18384   0.18986   0.19866   0.20210
 Alpha virt. eigenvalues --    0.20452   0.21890   0.22999   0.24218   0.25216
 Alpha virt. eigenvalues --    0.25278   0.25903   0.26669   0.27077   0.28048

 Mulliken atomic charges:
              1
     1  C   -0.279627
     2  N   -0.784163
     3  C    0.823187
     4  O   -0.628550
     5  C    0.102000
     6  C   -0.472730
     7  C   -0.333955
     8  C   -0.314102
     9  C   -0.368062
    10  C   -0.190369
    11  C   -0.230259
    12  C   -0.457205
    13  C   -0.315298
    14  C   -0.322932
    15  C    0.067643
    16  C   -0.501570
    17  N   -0.827619
    18  C    0.753299
    19  C   -0.629470
    20  O   -0.621299
    21  C    0.834506
    22  O   -0.659638
    23  N   -0.801415
    24  C   -0.279687
    25  N   -0.843287
    26  C    0.744507
    27  C   -0.588651
    28  O   -0.592368
    29  H    0.187244
    30  H    0.197734
    31  H    0.161490
    32  H    0.391250
    33  H    0.198840
    34  H    0.144469
    35  H    0.211687
    36  H    0.162406
    37  H    0.179169
    38  H    0.172304
    39  H    0.178307
    40  H    0.205924
    41  H    0.177859
    42  H    0.174911
    43  H    0.258725
    44  H    0.153401
    45  H    0.357972
    46  H    0.162528
    47  H    0.168663
    48  H    0.187902
    49  H    0.178921
    50  H    0.188535
    51  H    0.145052
    52  H    0.224501
    53  H    0.370791
    54  H    0.220742
    55  H    0.222194
    56  H    0.190129
    57  H    0.404009
    58  H    0.171478
    59  H    0.198415
    60  H    0.189361
    61  H    0.383063
    62  H    0.218167
    63  H    0.177624
    64  H    0.201349
 Sum of Mulliken atomic charges =   0.00000

 Dipole moment (field-independent basis, Debye):
    X=             -3.4309    Y=              2.1949    Z=             -2.6907  Tot=              4.8814
 Quadrupole moment (field-independent basis, Debye-Ang):
   XX=           -165.8716   YY=           -178.3258   ZZ=           -165.9226
   XY=             28.1897   XZ=            -22.1208   YZ=              4.0173

 Normal termination of Gaussian 09 at Thu Dec  5 19:23:59 2019.
