 Gaussian 09, Revision A.02,
 Gaussian 09:  EM64L-G09RevA.02 11-Jun-2009

 ---------------------------------
 #SP HF/6-31G* Geom=(ModRedundant)
 ---------------------------------

 ------------
 paramfit run
 ------------
 Symbolic Z-matrix:
 Charge =  0 Multiplicity = 1

                         Standard orientation:
 ---------------------------------------------------------------------
 Center     Atomic      Atomic             Coordinates (Angstroms)
 Number     Number       Type             X           Y           Z
 ---------------------------------------------------------------------
      1          6    20001001       -3.816689    2.883531    0.617370
      2          7    20001014       -4.152679    1.474981    0.598849
      3          6    20001002       -4.352363    0.844131   -0.581940
      4          8    20001024       -4.048639    1.333543   -1.634543
      5          6    90000001       -4.867914   -0.604190   -0.504749
      6          6    90000002       -5.473640   -1.005794   -1.853694
      7          6    90000002       -3.715813   -1.560176   -0.092007
      8          6    90000002       -2.473188   -1.665634   -0.994446
      9          6    90000002       -1.379358   -0.591222   -0.833786
     10          6    20001004       -0.827279   -0.480829    0.568106
     11          6    20001004        0.287594   -1.014890    1.039906
     12          6    90000002        1.284293   -1.868586    0.293215
     13          6    90000002        2.562913   -1.124437   -0.132153
     14          6    90000002        3.353267   -0.574176    1.062613
     15          6    90000002        4.774290   -0.012145    0.799065
     16          6    90000002        5.316193    0.525717    2.133417
     17          7    20001014        5.624182   -1.099473    0.333305
     18          6    20001002        6.893145   -0.871093   -0.114613
     19          6    20001001        7.503441   -2.004829   -0.906437
     20          8    20001024        7.485789    0.149573    0.100225
     21          6    20001002        4.683955    1.046529   -0.323332
     22          8    20001024        4.688871    0.708950   -1.476564
     23          7    20001014        4.497872    2.331856    0.047195
     24          6    20001001        4.455502    3.380276   -0.951415
     25          7    20001014       -5.864427   -0.737260    0.567950
     26          6    20001002       -7.033905   -0.036851    0.605647
     27          6    20001001       -8.068460   -0.564839    1.577781
     28          8    20001024       -7.228450    0.933370   -0.070344
     29          1    20001035       -4.632031    3.497427    0.252270
     30          1    20001035       -2.949899    3.060151   -0.002471
     31          1    20001035       -3.583527    3.169915    1.635198
     32          1    20001029       -4.639767    1.111948    1.384494
     33          1    20001034       -4.757611   -0.891806   -2.653220
     34          1    20001034       -5.795464   -2.042056   -1.810939
     35          1    20001034       -6.324876   -0.382086   -2.084588
     36          1    20001034       -4.160986   -2.551479   -0.043429
     37          1    20001034       -3.410341   -1.314150    0.920139
     38          1    20001034       -2.018330   -2.628256   -0.779781
     39          1    20001034       -2.773361   -1.700164   -2.036596
     40          1    20001034       -1.759365    0.374310   -1.141530
     41          1    20001034       -0.585371   -0.836135   -1.530518
     42          1    20001033       -1.419977    0.107922    1.249423
     43          1    20001033        0.526526   -0.823710    2.074373
     44          1    20001034        0.827377   -2.291607   -0.593208
     45          1    20001034        1.558789   -2.712534    0.924877
     46          1    20001034        3.169547   -1.814537   -0.711923
     47          1    20001034        2.300667   -0.319792   -0.806396
     48          1    20001034        3.463221   -1.354267    1.812882
     49          1    20001034        2.776965    0.219866    1.522750
     50          1    20001034        5.438780   -0.305250    2.818286
     51          1    20001034        4.619369    1.221825    2.588665
     52          1    20001034        6.275837    1.004879    2.010016
     53          1    20001029        5.149305   -1.843078   -0.125232
     54          1    20001034        8.578268   -1.906706   -0.892954
     55          1    20001034        7.160009   -1.933158   -1.934076
     56          1    20001034        7.217481   -2.975581   -0.516245
     57          1    20001029        4.737443    2.596198    0.973499
     58          1    20001035        4.179446    4.307734   -0.467126
     59          1    20001035        3.715789    3.140410   -1.701025
     60          1    20001035        5.414318    3.506344   -1.443891
     61          1    20001029       -5.849970   -1.601298    1.062699
     62          1    20001034       -8.756390    0.231409    1.822146
     63          1    20001034       -7.619167   -0.951290    2.485713
     64          1    20001034       -8.623825   -1.368567    1.105136
 ---------------------------------------------------------------------

 SCF Done:  E(RHF) =  -1295.62205656     A.U. after   14 cycles

 The electronic state is 1-A.
 Alpha  occ. eigenvalues --  -20.53656 -20.52044 -20.51857 -20.51578 -15.59614
 Alpha  occ. eigenvalues --  -15.57883 -15.57547 -15.57520 -11.35975 -11.34253
 Alpha  occ. eigenvalues --  -11.33870 -11.33664 -11.29032 -11.28559 -11.24962
 Alpha  occ. eigenvalues --  -11.24914 -11.24365 -11.24007 -11.23391 -11.22697
 Alpha  occ. eigenvalues --  -11.22553 -11.22515 -11.22352 -11.22227 -11.22022
 Alpha  occ. eigenvalues --  -11.21800 -11.21596 -11.20856  -1.40593  -1.39357
 Alpha  occ. eigenvalues --   -1.38715  -1.38078  -1.25439  -1.23546  -1.22596
 Alpha  occ. eigenvalues --   -1.22092  -1.10764  -1.09261  -1.07190  -1.04226
 Alpha  occ. eigenvalues --   -1.01234  -0.99325  -0.98737  -0.95531  -0.95127
 Alpha  occ. eigenvalues --   -0.94572  -0.92189  -0.87264  -0.85703  -0.82838
 Alpha  occ. eigenvalues --   -0.81346  -0.79489  -0.78768  -0.77192  -0.76863
 Alpha  occ. eigenvalues --   -0.71887  -0.71298  -0.71107  -0.68949  -0.67972
 Alpha  occ. eigenvalues --   -0.66736  -0.65858  -0.64526  -0.63951  -0.63680
 Alpha  occ. eigenvalues --   -0.62595  -0.62347  -0.61755  -0.61423  -0.61161
 Alpha  occ. eigenvalues --   -0.60923  -0.59900  -0.59345  -0.58731  -0.58431
 Alpha  occ. eigenvalues --   -0.58258  -0.57817  -0.56567  -0.56376  -0.56236
 Alpha  occ. eigenvalues --   -0.55504  -0.54856  -0.54745  -0.54565  -0.53935
 Alpha  occ. eigenvalues --   -0.53073  -0.52833  -0.52475  -0.52181  -0.51528
 Alpha  occ. eigenvalues --   -0.51035  -0.50303  -0.49766  -0.49270  -0.48566
 Alpha  occ. eigenvalues --   -0.48346  -0.46929  -0.46383  -0.44541  -0.42875
 Alpha  occ. eigenvalues --   -0.41948  -0.41496  -0.41059  -0.39295  -0.38826
 Alpha  occ. eigenvalues --   -0.38330  -0.38270  -0.34510
 Alpha virt. eigenvalues --    0.17339   0.18794   0.19668   0.19985   0.20232
 Alpha virt. eigenvalues --    0.21608   0.21951   0.23178   0.23250   0.23945
 Alpha virt. eigenvalues --    0.25287   0.25635   0.26549   0.27161   0.27588

 Mulliken atomic charges:
              1
     1  C   -0.279656
     2  N   -0.783401
     3  C    0.821891
     4  O   -0.628144
     5  C    0.102324
     6  C   -0.472791
     7  C   -0.334304
     8  C   -0.311893
     9  C   -0.373766
    10  C   -0.179182
    11  C   -0.176815
    12  C   -0.354064
    13  C   -0.310020
    14  C   -0.328680
    15  C    0.090486
    16  C   -0.509601
    17  N   -0.787309
    18  C    0.767253
    19  C   -0.595701
    20  O   -0.613834
    21  C    0.820890
    22  O   -0.639353
    23  N   -0.806135
    24  C   -0.275598
    25  N   -0.843076
    26  C    0.744559
    27  C   -0.588677
    28  O   -0.591765
    29  H    0.187024
    30  H    0.198262
    31  H    0.162200
    32  H    0.391335
    33  H    0.198960
    34  H    0.144115
    35  H    0.212520
    36  H    0.161385
    37  H    0.182127
    38  H    0.164462
    39  H    0.179875
    40  H    0.213438
    41  H    0.175077
    42  H    0.180436
    43  H    0.169727
    44  H    0.176780
    45  H    0.160094
    46  H    0.152885
    47  H    0.197705
    48  H    0.173017
    49  H    0.185274
    50  H    0.183429
    51  H    0.148425
    52  H    0.226623
    53  H    0.389528
    54  H    0.211191
    55  H    0.209489
    56  H    0.176239
    57  H    0.395284
    58  H    0.164911
    59  H    0.199778
    60  H    0.184952
    61  H    0.382622
    62  H    0.218623
    63  H    0.177187
    64  H    0.201385
 Sum of Mulliken atomic charges =   0.00000

 Dipole moment (field-independent basis, Debye):
    X=             -2.8013    Y=             -4.4816    Z=              6.3429  Tot=              8.2562
 Quadrupole moment (field-independent basis, Debye-Ang):
   XX=           -195.5242   YY=           -155.6129   ZZ=           -173.3264
   XY=             15.3066   XZ=            -17.6918   YZ=              9.7167

 Normal termination of Gaussian 09 at Thu Dec  5 19:55:19 2019.
