 Gaussian 09, Revision A.02,
 Gaussian 09:  EM64L-G09RevA.02 11-Jun-2009

 ---------------------------------
 #SP HF/6-31G* Geom=(ModRedundant)
 ---------------------------------

 ------------
 paramfit run
 ------------
 Symbolic Z-matrix:
 Charge =  0 Multiplicity = 1

                         Standard orientation:
 ---------------------------------------------------------------------
 Center     Atomic      Atomic             Coordinates (Angstroms)
 Number     Number       Type             X           Y           Z
 ---------------------------------------------------------------------
      1          6    20001001       -3.288169    1.355997   -2.630132
      2          7    20001014       -3.307040    0.887105   -1.260085
      3          6    20001002       -3.712107   -0.374552   -0.983949
      4          8    20001024       -3.848509   -1.209368   -1.834961
      5          6    90000001       -3.860924   -0.734370    0.505269
      6          6    90000002       -4.742720   -1.979474    0.646667
      7          6    90000002       -2.462614   -0.952779    1.144512
      8          6    90000002       -1.554316   -2.065999    0.591909
      9          6    90000002       -0.716964   -1.748796   -0.663025
     10          6    20001004        0.192636   -0.552487   -0.508904
     11          6    20001004        1.484355   -0.553478   -0.222170
     12          6    90000002        2.369438   -1.751877    0.023225
     13          6    90000002        3.273490   -2.125890   -1.165207
     14          6    90000002        4.249321   -1.003536   -1.543347
     15          6    90000002        4.205064    0.308629   -0.718173
     16          6    90000002        5.311094    1.232182   -1.254083
     17          7    20001014        2.907366    0.939025   -0.918446
     18          6    20001002        2.529874    2.037506   -0.201581
     19          6    20001001        1.050030    2.343581   -0.235972
     20          8    20001024        3.308032    2.713971    0.411613
     21          6    20001002        4.344395   -0.047355    0.779355
     22          8    20001024        3.381813   -0.386392    1.413720
     23          7    20001014        5.589351   -0.059895    1.302716
     24          6    20001001        5.786030   -0.335232    2.711158
     25          7    20001014       -4.438662    0.393831    1.250126
     26          6    20001002       -5.664059    0.929116    0.982646
     27          6    20001001       -6.223384    1.827870    2.065936
     28          8    20001024       -6.253412    0.716423   -0.038904
     29          1    20001035       -4.286287    1.421253   -3.047806
     30          1    20001035       -2.704845    0.680857   -3.238936
     31          1    20001035       -2.827547    2.335597   -2.653896
     32          1    20001029       -3.447938    1.564868   -0.547996
     33          1    20001034       -4.340103   -2.809362    0.086205
     34          1    20001034       -4.809165   -2.257944    1.694176
     35          1    20001034       -5.736154   -1.781625    0.271338
     36          1    20001034       -2.651610   -1.183827    2.190513
     37          1    20001034       -1.927854   -0.008219    1.133612
     38          1    20001034       -0.862467   -2.322095    1.389014
     39          1    20001034       -2.138054   -2.960511    0.400928
     40          1    20001034       -1.367654   -1.591392   -1.513431
     41          1    20001034       -0.134826   -2.634611   -0.891676
     42          1    20001033       -0.279911    0.405075   -0.656846
     43          1    20001033        1.975548    0.404745   -0.156590
     44          1    20001034        1.769019   -2.616812    0.277882
     45          1    20001034        2.993077   -1.549101    0.893024
     46          1    20001034        3.810916   -3.031899   -0.899321
     47          1    20001034        2.656855   -2.384315   -2.015975
     48          1    20001034        4.090250   -0.721508   -2.581947
     49          1    20001034        5.260619   -1.387304   -1.477429
     50          1    20001034        5.070592    1.505323   -2.274932
     51          1    20001034        6.271260    0.727018   -1.270563
     52          1    20001034        5.390340    2.138501   -0.672667
     53          1    20001029        2.165320    0.319033   -1.150158
     54          1    20001034        0.897841    3.381244    0.019282
     55          1    20001034        0.551727    1.725882    0.505155
     56          1    20001034        0.612475    2.135162   -1.206275
     57          1    20001029        6.304078    0.445297    0.834469
     58          1    20001035        6.847921   -0.418367    2.901940
     59          1    20001035        5.307279   -1.267959    2.970861
     60          1    20001035        5.371307    0.448790    3.336513
     61          1    20001029       -4.093622    0.518940    2.175783
     62          1    20001034       -6.959347    2.486247    1.627904
     63          1    20001034       -5.451662    2.414113    2.552058
     64          1    20001034       -6.710695    1.217037    2.819070
 ---------------------------------------------------------------------

 SCF Done:  E(RHF) =  -1295.30406427     A.U. after   15 cycles

 The electronic state is 1-A.
 Alpha  occ. eigenvalues --  -20.53370 -20.53293 -20.53138 -20.51448 -15.59592
 Alpha  occ. eigenvalues --  -15.59192 -15.57219 -15.55737 -11.35624 -11.35607
 Alpha  occ. eigenvalues --  -11.35250 -11.33464 -11.29655 -11.28533 -11.26353
 Alpha  occ. eigenvalues --  -11.24710 -11.24030 -11.23432 -11.23331 -11.22834
 Alpha  occ. eigenvalues --  -11.22461 -11.21756 -11.21317 -11.20452 -11.20416
 Alpha  occ. eigenvalues --  -11.20209 -11.16688 -11.16606  -1.43202  -1.40227
 Alpha  occ. eigenvalues --   -1.40127  -1.38309  -1.28869  -1.25019  -1.24780
 Alpha  occ. eigenvalues --   -1.21757  -1.10517  -1.09384  -1.07533  -1.03701
 Alpha  occ. eigenvalues --   -1.00614  -1.00205  -0.98593  -0.96181  -0.95238
 Alpha  occ. eigenvalues --   -0.94181  -0.92015  -0.87723  -0.87414  -0.83984
 Alpha  occ. eigenvalues --   -0.82293  -0.80786  -0.79393  -0.77428  -0.76855
 Alpha  occ. eigenvalues --   -0.76629  -0.70954  -0.70766  -0.68743  -0.68163
 Alpha  occ. eigenvalues --   -0.67017  -0.66071  -0.65462  -0.64366  -0.63875
 Alpha  occ. eigenvalues --   -0.63337  -0.62389  -0.62060  -0.61441  -0.61230
 Alpha  occ. eigenvalues --   -0.60867  -0.60234  -0.59620  -0.58929  -0.58635
 Alpha  occ. eigenvalues --   -0.57993  -0.57730  -0.57177  -0.57060  -0.56219
 Alpha  occ. eigenvalues --   -0.56020  -0.55636  -0.55038  -0.54314  -0.53749
 Alpha  occ. eigenvalues --   -0.53063  -0.52539  -0.52298  -0.51898  -0.51037
 Alpha  occ. eigenvalues --   -0.50671  -0.50594  -0.48985  -0.48109  -0.47489
 Alpha  occ. eigenvalues --   -0.46513  -0.46158  -0.45129  -0.43920  -0.42627
 Alpha  occ. eigenvalues --   -0.42417  -0.41946  -0.41476  -0.38892  -0.37983
 Alpha  occ. eigenvalues --   -0.35661  -0.33382  -0.31597
 Alpha virt. eigenvalues --    0.15500   0.18274   0.19146   0.19893   0.20371
 Alpha virt. eigenvalues --    0.20777   0.21976   0.23035   0.24521   0.25122
 Alpha virt. eigenvalues --    0.25609   0.25633   0.26513   0.27489   0.28022

 Mulliken atomic charges:
              1
     1  C   -0.279521
     2  N   -0.784057
     3  C    0.824346
     4  O   -0.628710
     5  C    0.101520
     6  C   -0.472528
     7  C   -0.333032
     8  C   -0.311696
     9  C   -0.364186
    10  C   -0.193400
    11  C   -0.290658
    12  C   -0.433259
    13  C   -0.320835
    14  C   -0.321746
    15  C    0.069083
    16  C   -0.501314
    17  N   -0.851955
    18  C    0.745979
    19  C   -0.626623
    20  O   -0.605935
    21  C    0.821380
    22  O   -0.638612
    23  N   -0.803491
    24  C   -0.279695
    25  N   -0.843259
    26  C    0.744541
    27  C   -0.588592
    28  O   -0.592855
    29  H    0.187068
    30  H    0.197499
    31  H    0.160218
    32  H    0.390988
    33  H    0.199098
    34  H    0.143947
    35  H    0.210707
    36  H    0.160915
    37  H    0.179635
    38  H    0.171284
    39  H    0.175288
    40  H    0.199903
    41  H    0.173015
    42  H    0.173184
    43  H    0.264558
    44  H    0.149121
    45  H    0.323340
    46  H    0.164418
    47  H    0.167403
    48  H    0.188416
    49  H    0.179992
    50  H    0.190432
    51  H    0.148093
    52  H    0.225070
    53  H    0.447342
    54  H    0.217193
    55  H    0.231180
    56  H    0.198458
    57  H    0.403007
    58  H    0.172149
    59  H    0.197798
    60  H    0.189032
    61  H    0.383074
    62  H    0.217623
    63  H    0.177637
    64  H    0.201023
 Sum of Mulliken atomic charges =   0.00000

 Dipole moment (field-independent basis, Debye):
    X=              4.3028    Y=              1.6779    Z=              3.4883  Tot=              5.7877
 Quadrupole moment (field-independent basis, Debye-Ang):
   XX=           -163.2123   YY=           -176.6328   ZZ=           -166.6172
   XY=            -19.5386   XZ=            -24.6700   YZ=             -5.9698

 Normal termination of Gaussian 09 at Thu Dec  5 19:16:51 2019.
