 Gaussian 09, Revision A.02,
 Gaussian 09:  EM64L-G09RevA.02 11-Jun-2009

 ---------------------------------
 #SP HF/6-31G* Geom=(ModRedundant)
 ---------------------------------

 ------------
 paramfit run
 ------------
 Symbolic Z-matrix:
 Charge =  0 Multiplicity = 1

                         Standard orientation:
 ---------------------------------------------------------------------
 Center     Atomic      Atomic             Coordinates (Angstroms)
 Number     Number       Type             X           Y           Z
 ---------------------------------------------------------------------
      1          6    20001001        4.423133   -2.316190    2.014180
      2          7    20001014        4.471798   -1.066509    1.283992
      3          6    20001002        4.661560   -1.074720   -0.056170
      4          8    20001024        4.570823   -2.073650   -0.714692
      5          6    90000001        4.867502    0.295804   -0.725975
      6          6    90000002        5.515880    0.102744   -2.100812
      7          6    90000002        3.511936    1.045253   -0.837196
      8          6    90000002        2.372250    0.410350   -1.654295
      9          6    90000002        1.503873   -0.657871   -0.960420
     10          6    20001004        0.844329   -0.181951    0.312678
     11          6    20001004       -0.396923    0.250420    0.464684
     12          6    90000002       -1.461976    0.376206   -0.598138
     13          6    90000002       -2.516273   -0.745162   -0.574532
     14          6    90000002       -3.299183   -0.794448    0.744383
     15          6    90000002       -4.710809   -0.153472    0.777676
     16          6    90000002       -5.296353   -0.391454    2.179087
     17          7    20001014       -4.575890    1.278025    0.544990
     18          6    20001002       -5.668020    2.079245    0.376587
     19          6    20001001       -5.377295    3.435225   -0.224744
     20          8    20001024       -6.777756    1.739962    0.680751
     21          6    20001002       -5.550670   -0.753858   -0.372496
     22          8    20001024       -5.460589   -0.308619   -1.484959
     23          7    20001014       -6.295230   -1.845895   -0.094886
     24          6    20001001       -7.144778   -2.427999   -1.113525
     25          7    20001014        5.702372    1.160167    0.120959
     26          6    20001002        6.977839    0.851781    0.492113
     27          6    20001001        7.781382    2.006869    1.052657
     28          8    20001024        7.429967   -0.253793    0.395027
     29          1    20001035        5.377454   -2.829967    1.998266
     30          1    20001035        3.677013   -2.964538    1.578665
     31          1    20001035        4.148782   -2.106458    3.040386
     32          1    20001029        4.793748   -0.264576    1.773416
     33          1    20001034        4.922601   -0.547968   -2.724933
     34          1    20001034        5.618654    1.066660   -2.590242
     35          1    20001034        6.493401   -0.344986   -1.996329
     36          1    20001034        3.743286    2.001852   -1.300462
     37          1    20001034        3.159653    1.269919    0.164653
     38          1    20001034        1.715159    1.223534   -1.948541
     39          1    20001034        2.764586   -0.008047   -2.575376
     40          1    20001034        2.098123   -1.536201   -0.744162
     41          1    20001034        0.752578   -0.973666   -1.675727
     42          1    20001033        1.469545   -0.207736    1.190489
     43          1    20001033       -0.697571    0.547082    1.457339
     44          1    20001034       -1.010236    0.396227   -1.582514
     45          1    20001034       -1.962324    1.335897   -0.474690
     46          1    20001034       -3.185661   -0.587188   -1.415567
     47          1    20001034       -2.031337   -1.695588   -0.754412
     48          1    20001034       -2.719976   -0.308208    1.526447
     49          1    20001034       -3.412737   -1.830528    1.041020
     50          1    20001034       -4.697806    0.150741    2.901823
     51          1    20001034       -5.257705   -1.441960    2.448021
     52          1    20001034       -6.313931   -0.037846    2.251452
     53          1    20001029       -3.776600    1.549337    0.019409
     54          1    20001034       -6.183652    4.110066    0.019053
     55          1    20001034       -5.324839    3.330820   -1.304316
     56          1    20001034       -4.436095    3.844210    0.126334
     57          1    20001029       -6.529888   -2.029819    0.851907
     58          1    20001035       -7.556834   -3.353164   -0.732473
     59          1    20001035       -6.561596   -2.639756   -1.997653
     60          1    20001035       -7.956492   -1.762613   -1.389453
     61          1    20001029        5.465465    2.127306    0.112830
     62          1    20001034        8.585483    1.612273    1.656552
     63          1    20001034        7.173566    2.679412    1.647465
     64          1    20001034        8.210852    2.573137    0.232476
 ---------------------------------------------------------------------

 SCF Done:  E(RHF) =  -1295.61511169     A.U. after   14 cycles

 The electronic state is 1-A.
 Alpha  occ. eigenvalues --  -20.53704 -20.52194 -20.51939 -20.51893 -15.59669
 Alpha  occ. eigenvalues --  -15.58112 -15.57616 -15.57606 -11.36021 -11.34380
 Alpha  occ. eigenvalues --  -11.33947 -11.33914 -11.29103 -11.28603 -11.25200
 Alpha  occ. eigenvalues --  -11.24973 -11.24398 -11.24093 -11.23182 -11.22834
 Alpha  occ. eigenvalues --  -11.22808 -11.22679 -11.22371 -11.22173 -11.21838
 Alpha  occ. eigenvalues --  -11.21766 -11.21759 -11.20922  -1.40643  -1.39602
 Alpha  occ. eigenvalues --   -1.38795  -1.38335  -1.25498  -1.23699  -1.22838
 Alpha  occ. eigenvalues --   -1.22160  -1.10870  -1.09303  -1.07291  -1.04321
 Alpha  occ. eigenvalues --   -1.01268  -0.99421  -0.98862  -0.95595  -0.95266
 Alpha  occ. eigenvalues --   -0.94692  -0.92248  -0.87396  -0.86000  -0.82903
 Alpha  occ. eigenvalues --   -0.81484  -0.79613  -0.78673  -0.77261  -0.77050
 Alpha  occ. eigenvalues --   -0.72015  -0.71585  -0.71232  -0.69022  -0.67709
 Alpha  occ. eigenvalues --   -0.67206  -0.65935  -0.64719  -0.64139  -0.63758
 Alpha  occ. eigenvalues --   -0.62849  -0.62502  -0.61718  -0.61331  -0.61017
 Alpha  occ. eigenvalues --   -0.60731  -0.60055  -0.59578  -0.59170  -0.58467
 Alpha  occ. eigenvalues --   -0.58294  -0.58010  -0.57232  -0.56557  -0.56135
 Alpha  occ. eigenvalues --   -0.55732  -0.55186  -0.54994  -0.54612  -0.53751
 Alpha  occ. eigenvalues --   -0.53370  -0.53178  -0.52839  -0.52178  -0.51129
 Alpha  occ. eigenvalues --   -0.50767  -0.50590  -0.49796  -0.49429  -0.48647
 Alpha  occ. eigenvalues --   -0.48180  -0.47023  -0.46274  -0.44730  -0.42933
 Alpha  occ. eigenvalues --   -0.42016  -0.41584  -0.41166  -0.39361  -0.39082
 Alpha  occ. eigenvalues --   -0.38405  -0.38327  -0.34659
 Alpha virt. eigenvalues --    0.17254   0.18745   0.19285   0.19918   0.20193
 Alpha virt. eigenvalues --    0.21003   0.21745   0.22995   0.23444   0.23629
 Alpha virt. eigenvalues --    0.25144   0.25354   0.26422   0.27021   0.27800

 Mulliken atomic charges:
              1
     1  C   -0.279686
     2  N   -0.783450
     3  C    0.821859
     4  O   -0.628581
     5  C    0.102354
     6  C   -0.472774
     7  C   -0.334535
     8  C   -0.311732
     9  C   -0.373641
    10  C   -0.180631
    11  C   -0.173896
    12  C   -0.358825
    13  C   -0.349228
    14  C   -0.333799
    15  C    0.085784
    16  C   -0.509605
    17  N   -0.801643
    18  C    0.767883
    19  C   -0.597979
    20  O   -0.613166
    21  C    0.820470
    22  O   -0.637921
    23  N   -0.804938
    24  C   -0.275621
    25  N   -0.843097
    26  C    0.744541
    27  C   -0.588709
    28  O   -0.591777
    29  H    0.187162
    30  H    0.197768
    31  H    0.162794
    32  H    0.391553
    33  H    0.198623
    34  H    0.144447
    35  H    0.212672
    36  H    0.161861
    37  H    0.182143
    38  H    0.164952
    39  H    0.180073
    40  H    0.213281
    41  H    0.173297
    42  H    0.181714
    43  H    0.171336
    44  H    0.180875
    45  H    0.141327
    46  H    0.225030
    47  H    0.176752
    48  H    0.182587
    49  H    0.182926
    50  H    0.183371
    51  H    0.149321
    52  H    0.225809
    53  H    0.407975
    54  H    0.211665
    55  H    0.208908
    56  H    0.175934
    57  H    0.396484
    58  H    0.165652
    59  H    0.198301
    60  H    0.185440
    61  H    0.382739
    62  H    0.218751
    63  H    0.177319
    64  H    0.201503
 Sum of Mulliken atomic charges =   0.00000

 Dipole moment (field-independent basis, Debye):
    X=              1.5972    Y=              3.9416    Z=              3.2673  Tot=              5.3631
 Quadrupole moment (field-independent basis, Debye-Ang):
   XX=           -205.0961   YY=           -161.8876   ZZ=           -168.7307
   XY=             49.4819   XZ=              4.2645   YZ=             -7.1161

 Normal termination of Gaussian 09 at Thu Dec  5 19:20:07 2019.
