 Gaussian 09, Revision A.02,
 Gaussian 09:  EM64L-G09RevA.02 11-Jun-2009

 ---------------------------------
 #SP HF/6-31G* Geom=(ModRedundant)
 ---------------------------------

 ------------
 paramfit run
 ------------
 Symbolic Z-matrix:
 Charge =  0 Multiplicity = 1

                         Standard orientation:
 ---------------------------------------------------------------------
 Center     Atomic      Atomic             Coordinates (Angstroms)
 Number     Number       Type             X           Y           Z
 ---------------------------------------------------------------------
      1          6    20001001       -3.968969    2.864731    0.795302
      2          7    20001014       -4.260557    1.449878    0.693261
      3          6    20001002       -4.449056    0.885491   -0.522488
      4          8    20001024       -4.168741    1.447054   -1.545139
      5          6    90000001       -4.918147   -0.580550   -0.530415
      6          6    90000002       -5.520947   -0.919014   -1.897864
      7          6    90000002       -3.733468   -1.522505   -0.182769
      8          6    90000002       -2.494889   -1.533556   -1.096792
      9          6    90000002       -1.434276   -0.436482   -0.877321
     10          6    20001004       -0.875528   -0.393460    0.525614
     11          6    20001004        0.259094   -0.919232    0.957997
     12          6    90000002        1.276600   -1.694026    0.155422
     13          6    90000002        2.527947   -0.885137   -0.231096
     14          6    90000002        3.309449   -0.383160    0.990455
     15          6    90000002        4.793844    0.018422    0.790589
     16          6    90000002        5.320103    0.538492    2.138191
     17          7    20001014        5.546370   -1.166069    0.400440
     18          6    20001002        6.853863   -1.086045    0.016881
     19          6    20001001        7.380398   -2.301888   -0.710645
     20          8    20001024        7.539663   -0.126749    0.237267
     21          6    20001002        4.874614    1.044742   -0.362177
     22          8    20001024        4.903258    0.672235   -1.504257
     23          7    20001014        4.807202    2.353547   -0.035888
     24          6    20001001        4.928114    3.368565   -1.062202
     25          7    20001014       -5.901962   -0.809911    0.537729
     26          6    20001002       -7.092607   -0.150711    0.624285
     27          6    20001001       -8.102754   -0.769203    1.568313
     28          8    20001024       -7.322639    0.851890    0.009454
     29          1    20001035       -4.805937    3.473255    0.472607
     30          1    20001035       -3.112809    3.106036    0.182533
     31          1    20001035       -3.737373    3.096372    1.827319
     32          1    20001029       -4.730108    1.024683    1.458125
     33          1    20001034       -4.814835   -0.734142   -2.692949
     34          1    20001034       -5.809647   -1.965700   -1.916247
     35          1    20001034       -6.393100   -0.309955   -2.085808
     36          1    20001034       -4.146824   -2.528623   -0.191933
     37          1    20001034       -3.428370   -1.328478    0.840729
     38          1    20001034       -2.008352   -2.492395   -0.943408
     39          1    20001034       -2.801575   -1.514598   -2.137444
     40          1    20001034       -1.846785    0.533272   -1.123849
     41          1    20001034       -0.638177   -0.613399   -1.591997
     42          1    20001033       -1.481387    0.133841    1.244641
     43          1    20001033        0.499579   -0.783394    2.000819
     44          1    20001034        0.826649   -2.077062   -0.752484
     45          1    20001034        1.582235   -2.565421    0.733221
     46          1    20001034        3.151683   -1.519243   -0.854986
     47          1    20001034        2.235477   -0.049990   -0.853848
     48          1    20001034        3.296989   -1.146379    1.765618
     49          1    20001034        2.797736    0.480985    1.397583
     50          1    20001034        5.318163   -0.278686    2.850087
     51          1    20001034        4.678561    1.317753    2.536383
     52          1    20001034        6.330301    0.910427    2.055108
     53          1    20001029        5.019539   -1.869993   -0.063944
     54          1    20001034        8.457424   -2.316438   -0.640897
     55          1    20001034        7.100108   -2.227165   -1.757057
     56          1    20001034        6.973157   -3.224555   -0.311620
     57          1    20001029        5.025289    2.620493    0.894966
     58          1    20001035        4.727467    4.334661   -0.617995
     59          1    20001035        4.206854    3.183886   -1.844702
     60          1    20001035        5.919065    3.377948   -1.504559
     61          1    20001029       -5.856616   -1.701367    0.979087
     62          1    20001034       -8.813583   -0.011521    1.864306
     63          1    20001034       -7.634766   -1.195291    2.448647
     64          1    20001034       -8.636032   -1.560200    1.050877
 ---------------------------------------------------------------------

 SCF Done:  E(RHF) =  -1295.62155054     A.U. after   14 cycles

 The electronic state is 1-A.
 Alpha  occ. eigenvalues --  -20.53664 -20.52076 -20.51871 -20.51612 -15.59623
 Alpha  occ. eigenvalues --  -15.57905 -15.57561 -15.57557 -11.35982 -11.34288
 Alpha  occ. eigenvalues --  -11.33882 -11.33688 -11.29043 -11.28579 -11.24992
 Alpha  occ. eigenvalues --  -11.24924 -11.24371 -11.24018 -11.23391 -11.22711
 Alpha  occ. eigenvalues --  -11.22566 -11.22550 -11.22342 -11.22238 -11.22027
 Alpha  occ. eigenvalues --  -11.21815 -11.21617 -11.20867  -1.40601  -1.39385
 Alpha  occ. eigenvalues --   -1.38728  -1.38104  -1.25448  -1.23583  -1.22620
 Alpha  occ. eigenvalues --   -1.22103  -1.10775  -1.09274  -1.07208  -1.04242
 Alpha  occ. eigenvalues --   -1.01244  -0.99341  -0.98764  -0.95542  -0.95143
 Alpha  occ. eigenvalues --   -0.94594  -0.92196  -0.87275  -0.85728  -0.82849
 Alpha  occ. eigenvalues --   -0.81362  -0.79524  -0.78774  -0.77203  -0.76888
 Alpha  occ. eigenvalues --   -0.71857  -0.71341  -0.71140  -0.68959  -0.67949
 Alpha  occ. eigenvalues --   -0.66849  -0.65871  -0.64532  -0.63965  -0.63594
 Alpha  occ. eigenvalues --   -0.62619  -0.62403  -0.61677  -0.61482  -0.61197
 Alpha  occ. eigenvalues --   -0.60939  -0.59902  -0.59384  -0.58815  -0.58443
 Alpha  occ. eigenvalues --   -0.58262  -0.57824  -0.56556  -0.56390  -0.56270
 Alpha  occ. eigenvalues --   -0.55561  -0.54890  -0.54779  -0.54572  -0.53867
 Alpha  occ. eigenvalues --   -0.53046  -0.52881  -0.52546  -0.52253  -0.51457
 Alpha  occ. eigenvalues --   -0.51042  -0.50313  -0.49787  -0.49302  -0.48627
 Alpha  occ. eigenvalues --   -0.48326  -0.46940  -0.46359  -0.44574  -0.42884
 Alpha  occ. eigenvalues --   -0.41959  -0.41530  -0.41090  -0.39305  -0.38855
 Alpha  occ. eigenvalues --   -0.38342  -0.38292  -0.34511
 Alpha virt. eigenvalues --    0.17377   0.18787   0.19649   0.19978   0.20232
 Alpha virt. eigenvalues --    0.21605   0.21785   0.23188   0.23277   0.23966
 Alpha virt. eigenvalues --    0.25232   0.25590   0.26555   0.27205   0.27325

 Mulliken atomic charges:
              1
     1  C   -0.279646
     2  N   -0.783386
     3  C    0.821905
     4  O   -0.628257
     5  C    0.102320
     6  C   -0.472782
     7  C   -0.334327
     8  C   -0.311801
     9  C   -0.373652
    10  C   -0.179699
    11  C   -0.175986
    12  C   -0.356136
    13  C   -0.311566
    14  C   -0.326907
    15  C    0.087700
    16  C   -0.509679
    17  N   -0.785847
    18  C    0.766949
    19  C   -0.595639
    20  O   -0.613650
    21  C    0.822053
    22  O   -0.639271
    23  N   -0.806604
    24  C   -0.275591
    25  N   -0.843075
    26  C    0.744558
    27  C   -0.588682
    28  O   -0.591775
    29  H    0.187036
    30  H    0.198129
    31  H    0.162322
    32  H    0.391375
    33  H    0.198901
    34  H    0.144157
    35  H    0.212531
    36  H    0.161425
    37  H    0.182183
    38  H    0.164517
    39  H    0.179841
    40  H    0.213242
    41  H    0.174639
    42  H    0.180487
    43  H    0.170017
    44  H    0.176434
    45  H    0.159527
    46  H    0.162348
    47  H    0.191333
    48  H    0.173414
    49  H    0.185854
    50  H    0.183344
    51  H    0.148694
    52  H    0.226567
    53  H    0.388450
    54  H    0.211314
    55  H    0.209376
    56  H    0.176266
    57  H    0.395395
    58  H    0.165052
    59  H    0.199453
    60  H    0.184965
    61  H    0.382640
    62  H    0.218638
    63  H    0.177210
    64  H    0.201396
 Sum of Mulliken atomic charges =   0.00000

 Dipole moment (field-independent basis, Debye):
    X=             -2.7920    Y=             -4.4586    Z=              6.0092  Tot=              7.9865
 Quadrupole moment (field-independent basis, Debye-Ang):
   XX=           -199.6271   YY=           -154.8746   ZZ=           -172.9749
   XY=             20.3182   XZ=            -16.8111   YZ=              9.2002

 Normal termination of Gaussian 09 at Thu Dec  5 19:50:18 2019.
