 Gaussian 09, Revision A.02,
 Gaussian 09:  EM64L-G09RevA.02 11-Jun-2009

 ---------------------------------
 #SP HF/6-31G* Geom=(ModRedundant)
 ---------------------------------

 ------------
 paramfit run
 ------------
 Symbolic Z-matrix:
 Charge =  0 Multiplicity = 1

                         Standard orientation:
 ---------------------------------------------------------------------
 Center     Atomic      Atomic             Coordinates (Angstroms)
 Number     Number       Type             X           Y           Z
 ---------------------------------------------------------------------
      1          6    20001001        4.310501   -1.672075    2.578685
      2          7    20001014        4.281297   -0.688183    1.516447
      3          6    20001002        4.512704   -1.067969    0.238041
      4          8    20001024        4.523048   -2.218777   -0.101487
      5          6    90000001        4.628604    0.062124   -0.800634
      6          6    90000002        5.332852   -0.464511   -2.055438
      7          6    90000002        3.221326    0.627843   -1.133997
      8          6    90000002        2.162307   -0.312024   -1.737955
      9          6    90000002        1.361398   -1.203890   -0.768544
     10          6    20001004        0.626464   -0.438054    0.306465
     11          6    20001004       -0.649640   -0.088506    0.318004
     12          6    90000002       -1.687775   -0.368025   -0.742135
     13          6    90000002       -2.648791   -1.520713   -0.399612
     14          6    90000002       -3.465861   -1.252854    0.871436
     15          6    90000002       -4.560151   -0.155541    0.815937
     16          6    90000002       -5.263700   -0.131255    2.182641
     17          7    20001014       -3.916872    1.129522    0.578584
     18          6    20001002       -4.645691    2.258462    0.339057
     19          6    20001001       -3.864423    3.407286   -0.256454
     20          8    20001024       -5.817912    2.340335    0.580585
     21          6    20001002       -5.497124   -0.455393   -0.376076
     22          8    20001024       -5.198261   -0.103013   -1.485327
     23          7    20001014       -6.592470   -1.207057   -0.132769
     24          6    20001001       -7.538849   -1.482553   -1.194218
     25          7    20001014        5.364577    1.203178   -0.236923
     26          6    20001002        6.648531    1.126326    0.216097
     27          6    20001001        7.338844    2.458850    0.420954
     28          8    20001024        7.190824    0.083158    0.448171
     29          1    20001035        5.303048   -2.084448    2.719216
     30          1    20001035        3.632795   -2.480393    2.346179
     31          1    20001035        3.988395   -1.198414    3.497514
     32          1    20001029        4.522394    0.245715    1.753077
     33          1    20001034        4.813476   -1.316593   -2.466701
     34          1    20001034        5.373025    0.321376   -2.803773
     35          1    20001034        6.339461   -0.777051   -1.818825
     36          1    20001034        3.389370    1.425383   -1.854351
     37          1    20001034        2.821135    1.101987   -0.243314
     38          1    20001034        1.451478    0.321439   -2.260512
     39          1    20001034        2.615453   -0.944001   -2.494683
     40          1    20001034        2.017279   -1.927446   -0.302014
     41          1    20001034        0.660521   -1.776707   -1.365609
     42          1    20001033        1.224119   -0.154600    1.157684
     43          1    20001033       -1.003886    0.456041    1.179247
     44          1    20001034       -1.208700   -0.595314   -1.686748
     45          1    20001034       -2.267208    0.539574   -0.906802
     46          1    20001034       -3.302219   -1.671298   -1.254441
     47          1    20001034       -2.083702   -2.437154   -0.291726
     48          1    20001034       -2.793629   -0.978851    1.681720
     49          1    20001034       -3.952943   -2.173607    1.170289
     50          1    20001034       -4.550582    0.186563    2.934330
     51          1    20001034       -5.612248   -1.119863    2.462912
     52          1    20001034       -6.093298    0.559700    2.191899
     53          1    20001029       -3.047204    1.086805    0.098412
     54          1    20001034       -4.392202    4.329489   -0.066577
     55          1    20001034       -3.796389    3.259610   -1.330087
     56          1    20001034       -2.858967    3.469063    0.145570
     57          1    20001029       -6.925605   -1.268923    0.800239
     58          1    20001035       -8.270024   -2.192049   -0.829637
     59          1    20001035       -7.022998   -1.911678   -2.040607
     60          1    20001035       -8.048068   -0.582495   -1.523377
     61          1    20001029        5.051099    2.102392   -0.527947
     62          1    20001034        8.152872    2.326747    1.118722
     63          1    20001034        6.660750    3.220051    0.790157
     64          1    20001034        7.746737    2.797926   -0.525858
 ---------------------------------------------------------------------

 SCF Done:  E(RHF) =  -1295.60593722     A.U. after   14 cycles

 The electronic state is 1-A.
 Alpha  occ. eigenvalues --  -20.53734 -20.52071 -20.51994 -20.51899 -15.59707
 Alpha  occ. eigenvalues --  -15.58131 -15.57670 -15.57156 -11.36051 -11.34269
 Alpha  occ. eigenvalues --  -11.34001 -11.33907 -11.29156 -11.28591 -11.25242
 Alpha  occ. eigenvalues --  -11.25017 -11.24417 -11.24166 -11.23295 -11.22901
 Alpha  occ. eigenvalues --  -11.22845 -11.22686 -11.22589 -11.22412 -11.22222
 Alpha  occ. eigenvalues --  -11.21894 -11.21821 -11.20964  -1.40675  -1.39542
 Alpha  occ. eigenvalues --   -1.38849  -1.38264  -1.25539  -1.23763  -1.22856
 Alpha  occ. eigenvalues --   -1.22211  -1.10994  -1.09328  -1.07452  -1.04499
 Alpha  occ. eigenvalues --   -1.01353  -0.99508  -0.98914  -0.95643  -0.95374
 Alpha  occ. eigenvalues --   -0.94715  -0.92329  -0.87573  -0.86210  -0.83084
 Alpha  occ. eigenvalues --   -0.81867  -0.79580  -0.78539  -0.77316  -0.77136
 Alpha  occ. eigenvalues --   -0.72685  -0.71746  -0.71273  -0.69058  -0.67702
 Alpha  occ. eigenvalues --   -0.66783  -0.65981  -0.64771  -0.64197  -0.63935
 Alpha  occ. eigenvalues --   -0.62839  -0.62527  -0.61828  -0.61357  -0.61047
 Alpha  occ. eigenvalues --   -0.60720  -0.60206  -0.59590  -0.59075  -0.58538
 Alpha  occ. eigenvalues --   -0.58331  -0.58152  -0.57424  -0.56792  -0.56257
 Alpha  occ. eigenvalues --   -0.55682  -0.55156  -0.55012  -0.54654  -0.53837
 Alpha  occ. eigenvalues --   -0.53315  -0.53201  -0.52905  -0.52173  -0.51170
 Alpha  occ. eigenvalues --   -0.50891  -0.50493  -0.49857  -0.49529  -0.48621
 Alpha  occ. eigenvalues --   -0.48530  -0.47135  -0.46333  -0.44822  -0.42971
 Alpha  occ. eigenvalues --   -0.42064  -0.41538  -0.40990  -0.39407  -0.38924
 Alpha  occ. eigenvalues --   -0.38457  -0.38377  -0.34868
 Alpha virt. eigenvalues --    0.17094   0.18715   0.19424   0.19865   0.20125
 Alpha virt. eigenvalues --    0.21284   0.21966   0.23021   0.23591   0.23730
 Alpha virt. eigenvalues --    0.25200   0.25516   0.26487   0.27156   0.27794

 Mulliken atomic charges:
              1
     1  C   -0.279791
     2  N   -0.783675
     3  C    0.821727
     4  O   -0.628576
     5  C    0.102423
     6  C   -0.472819
     7  C   -0.334747
     8  C   -0.312247
     9  C   -0.374277
    10  C   -0.180555
    11  C   -0.176523
    12  C   -0.397826
    13  C   -0.310482
    14  C   -0.339571
    15  C    0.086557
    16  C   -0.508381
    17  N   -0.807862
    18  C    0.768703
    19  C   -0.600996
    20  O   -0.614939
    21  C    0.821588
    22  O   -0.641336
    23  N   -0.806691
    24  C   -0.275467
    25  N   -0.843158
    26  C    0.744513
    27  C   -0.588728
    28  O   -0.591733
    29  H    0.187404
    30  H    0.197608
    31  H    0.163007
    32  H    0.391674
    33  H    0.198502
    34  H    0.144746
    35  H    0.212853
    36  H    0.162510
    37  H    0.181590
    38  H    0.165942
    39  H    0.180735
    40  H    0.213863
    41  H    0.173365
    42  H    0.183027
    43  H    0.174796
    44  H    0.188403
    45  H    0.169433
    46  H    0.203700
    47  H    0.173705
    48  H    0.186420
    49  H    0.180078
    50  H    0.183419
    51  H    0.148755
    52  H    0.226014
    53  H    0.410795
    54  H    0.211744
    55  H    0.208455
    56  H    0.176388
    57  H    0.396504
    58  H    0.165602
    59  H    0.197491
    60  H    0.185624
    61  H    0.382825
    62  H    0.218862
    63  H    0.177388
    64  H    0.201643
 Sum of Mulliken atomic charges =   0.00000

 Dipole moment (field-independent basis, Debye):
    X=              0.5166    Y=              3.3995    Z=              1.7061  Tot=              3.8385
 Quadrupole moment (field-independent basis, Debye-Ang):
   XX=           -195.3628   YY=           -170.0538   ZZ=           -166.9633
   XY=             53.5940   XZ=             -7.1588   YZ=             -4.4800

 Normal termination of Gaussian 09 at Thu Dec  5 19:04:25 2019.
