 Gaussian 09, Revision A.02,
 Gaussian 09:  EM64L-G09RevA.02 11-Jun-2009

 ---------------------------------
 #SP HF/6-31G* Geom=(ModRedundant)
 ---------------------------------

 ------------
 paramfit run
 ------------
 Symbolic Z-matrix:
 Charge =  0 Multiplicity = 1

                         Standard orientation:
 ---------------------------------------------------------------------
 Center     Atomic      Atomic             Coordinates (Angstroms)
 Number     Number       Type             X           Y           Z
 ---------------------------------------------------------------------
      1          6    20001001       -3.768767    2.901816    0.732069
      2          7    20001014       -4.139465    1.502490    0.690618
      3          6    20001002       -4.490627    0.931772   -0.485424
      4          8    20001024       -4.299264    1.464057   -1.543629
      5          6    90000001       -5.029475   -0.508273   -0.412630
      6          6    90000002       -5.797660   -0.834250   -1.697726
      7          6    90000002       -3.861276   -1.504811   -0.180623
      8          6    90000002       -2.734967   -1.591940   -1.226315
      9          6    90000002       -1.603568   -0.547735   -1.147520
     10          6    20001004       -0.889717   -0.514036    0.183480
     11          6    20001004        0.258846   -1.091242    0.497156
     12          6    90000002        1.140516   -1.928169   -0.398368
     13          6    90000002        2.379089   -1.189884   -0.937292
     14          6    90000002        3.316360   -0.711797    0.179789
     15          6    90000002        4.686919   -0.111098   -0.226875
     16          6    90000002        4.998883   -0.589427   -1.654226
     17          7    20001014        4.578766    1.341378   -0.214784
     18          6    20001002        5.671756    2.139421   -0.392431
     19          6    20001001        5.481714    3.581583    0.018491
     20          8    20001024        6.708129    1.734130   -0.840555
     21          6    20001002        5.738209   -0.527062    0.826921
     22          8    20001024        5.854881    0.098533    1.846210
     23          7    20001014        6.431595   -1.663433    0.599206
     24          6    20001001        7.467160   -2.083420    1.520845
     25          7    20001014       -5.897542   -0.672145    0.762545
     26          6    20001002       -7.036977    0.048338    0.968126
     27          6    20001001       -7.964300   -0.504480    2.030474
     28          8    20001024       -7.284651    1.052825    0.363308
     29          1    20001035       -4.605541    3.547918    0.492673
     30          1    20001035       -2.975786    3.090444    0.023322
     31          1    20001035       -3.411850    3.135512    1.727232
     32          1    20001029       -4.540786    1.112519    1.511074
     33          1    20001034       -5.176810   -0.696804   -2.569843
     34          1    20001034       -6.137936   -1.864920   -1.663535
     35          1    20001034       -6.654230   -0.183951   -1.799331
     36          1    20001034       -4.322235   -2.488454   -0.124198
     37          1    20001034       -3.434222   -1.312560    0.798634
     38          1    20001034       -2.282258   -2.572244   -1.109368
     39          1    20001034       -3.155002   -1.571663   -2.226582
     40          1    20001034       -1.992703    0.438388   -1.365459
     41          1    20001034       -0.902266   -0.775068   -1.942711
     42          1    20001033       -1.384420    0.053500    0.955027
     43          1    20001033        0.621066   -0.953519    1.503928
     44          1    20001034        0.573315   -2.300143   -1.242988
     45          1    20001034        1.465555   -2.806020    0.158698
     46          1    20001034        2.896918   -1.863676   -1.614221
     47          1    20001034        2.060290   -0.349525   -1.539782
     48          1    20001034        3.528800   -1.540291    0.852100
     49          1    20001034        2.800761    0.039465    0.766400
     50          1    20001034        4.266484   -0.164153   -2.330475
     51          1    20001034        4.924466   -1.669147   -1.732002
     52          1    20001034        5.979179   -0.271367   -1.976094
     53          1    20001029        3.890156    1.710821    0.400066
     54          1    20001034        6.217629    4.191690   -0.482768
     55          1    20001034        5.636715    3.659122    1.090446
     56          1    20001034        4.485373    3.943565   -0.210976
     57          1    20001029        6.484690   -2.006479   -0.330747
     58          1    20001035        7.812160   -3.066417    1.228249
     59          1    20001035        7.065517   -2.134554    2.522191
     60          1    20001035        8.307177   -1.396310    1.523041
     61          1    20001029       -5.847112   -1.558574    1.213375
     62          1    20001034       -8.599202    0.292649    2.388883
     63          1    20001034       -7.422245   -0.941795    2.861427
     64          1    20001034       -8.590601   -1.274178    1.591026
 ---------------------------------------------------------------------

 SCF Done:  E(RHF) =  -1295.61263789     A.U. after   14 cycles

 The electronic state is 1-A.
 Alpha  occ. eigenvalues --  -20.53737 -20.51997 -20.51977 -20.51712 -15.59707
 Alpha  occ. eigenvalues --  -15.57999 -15.57665 -15.57490 -11.36053 -11.34160
 Alpha  occ. eigenvalues --  -11.34004 -11.33773 -11.29157 -11.28525 -11.25167
 Alpha  occ. eigenvalues --  -11.25025 -11.24419 -11.24150 -11.23478 -11.22898
 Alpha  occ. eigenvalues --  -11.22844 -11.22787 -11.22410 -11.22399 -11.22201
 Alpha  occ. eigenvalues --  -11.21862 -11.21612 -11.20985  -1.40678  -1.39360
 Alpha  occ. eigenvalues --   -1.38852  -1.38090  -1.25539  -1.23531  -1.22714
 Alpha  occ. eigenvalues --   -1.22209  -1.11062  -1.09569  -1.07341  -1.04172
 Alpha  occ. eigenvalues --   -1.01223  -0.99423  -0.98504  -0.95648  -0.95294
 Alpha  occ. eigenvalues --   -0.94602  -0.92826  -0.88116  -0.86225  -0.82586
 Alpha  occ. eigenvalues --   -0.80919  -0.79396  -0.78717  -0.77309  -0.76879
 Alpha  occ. eigenvalues --   -0.72038  -0.71331  -0.71055  -0.69029  -0.68332
 Alpha  occ. eigenvalues --   -0.66635  -0.65954  -0.65276  -0.64191  -0.63928
 Alpha  occ. eigenvalues --   -0.62894  -0.62555  -0.61916  -0.61565  -0.61169
 Alpha  occ. eigenvalues --   -0.61053  -0.60064  -0.59427  -0.59129  -0.58395
 Alpha  occ. eigenvalues --   -0.58316  -0.58154  -0.56891  -0.56465  -0.55993
 Alpha  occ. eigenvalues --   -0.55551  -0.55105  -0.54681  -0.54537  -0.53763
 Alpha  occ. eigenvalues --   -0.53370  -0.52935  -0.52636  -0.52283  -0.51199
 Alpha  occ. eigenvalues --   -0.50998  -0.50415  -0.49844  -0.49195  -0.48666
 Alpha  occ. eigenvalues --   -0.48173  -0.47209  -0.47096  -0.44641  -0.42972
 Alpha  occ. eigenvalues --   -0.42065  -0.41673  -0.40925  -0.39409  -0.38906
 Alpha  occ. eigenvalues --   -0.38456  -0.38330  -0.34735
 Alpha virt. eigenvalues --    0.17231   0.18716   0.19883   0.20079   0.20199
 Alpha virt. eigenvalues --    0.21312   0.21957   0.23063   0.23269   0.23859
 Alpha virt. eigenvalues --    0.25135   0.25208   0.26038   0.26569   0.27364

 Mulliken atomic charges:
              1
     1  C   -0.279709
     2  N   -0.783424
     3  C    0.821845
     4  O   -0.628867
     5  C    0.102371
     6  C   -0.472744
     7  C   -0.334583
     8  C   -0.311545
     9  C   -0.372678
    10  C   -0.180949
    11  C   -0.179792
    12  C   -0.350521
    13  C   -0.310287
    14  C   -0.336712
    15  C    0.124162
    16  C   -0.526829
    17  N   -0.789358
    18  C    0.766538
    19  C   -0.594791
    20  O   -0.614139
    21  C    0.793156
    22  O   -0.631903
    23  N   -0.802820
    24  C   -0.274225
    25  N   -0.843067
    26  C    0.744503
    27  C   -0.588758
    28  O   -0.591797
    29  H    0.187450
    30  H    0.197014
    31  H    0.163206
    32  H    0.391864
    33  H    0.198202
    34  H    0.144392
    35  H    0.212846
    36  H    0.161942
    37  H    0.183003
    38  H    0.164832
    39  H    0.179410
    40  H    0.213062
    41  H    0.170822
    42  H    0.181820
    43  H    0.175263
    44  H    0.175463
    45  H    0.165847
    46  H    0.168862
    47  H    0.175755
    48  H    0.184573
    49  H    0.174751
    50  H    0.192055
    51  H    0.148469
    52  H    0.228193
    53  H    0.385071
    54  H    0.211104
    55  H    0.208554
    56  H    0.178295
    57  H    0.396288
    58  H    0.164333
    59  H    0.197663
    60  H    0.185724
    61  H    0.382890
    62  H    0.218895
    63  H    0.177591
    64  H    0.201418
 Sum of Mulliken atomic charges =   0.00000

 Dipole moment (field-independent basis, Debye):
    X=             -2.8353    Y=             -5.6407    Z=              3.1899  Tot=              7.0733
 Quadrupole moment (field-independent basis, Debye-Ang):
   XX=           -199.0159   YY=           -159.6663   ZZ=           -175.0625
   XY=              8.7911   XZ=            -28.7891   YZ=              7.4955

 Normal termination of Gaussian 09 at Thu Dec  5 19:37:50 2019.
