 Gaussian 09, Revision A.02,
 Gaussian 09:  EM64L-G09RevA.02 11-Jun-2009

 ---------------------------------
 #SP HF/6-31G* Geom=(ModRedundant)
 ---------------------------------

 ------------
 paramfit run
 ------------
 Symbolic Z-matrix:
 Charge =  0 Multiplicity = 1

                         Standard orientation:
 ---------------------------------------------------------------------
 Center     Atomic      Atomic             Coordinates (Angstroms)
 Number     Number       Type             X           Y           Z
 ---------------------------------------------------------------------
      1          6    20001001       -3.997774   -2.008090    2.299479
      2          7    20001014       -4.293719   -1.327429    1.055951
      3          6    20001002       -4.538402    0.003825    1.056755
      4          8    20001024       -4.305867    0.702147    2.004394
      5          6    90000001       -5.007289    0.613640   -0.276533
      6          6    90000002       -5.672877    1.968796   -0.015021
      7          6    90000002       -3.807712    0.748827   -1.253437
      8          6    90000002       -2.612879    1.632219   -0.851405
      9          6    90000002       -1.543274    1.012543    0.069782
     10          6    20001004       -0.920031   -0.251141   -0.475147
     11          6    20001004        0.233455   -0.371370   -1.112149
     12          6    90000002        1.212660    0.726154   -1.453252
     13          6    90000002        2.444687    0.784911   -0.532262
     14          6    90000002        3.282006   -0.500196   -0.580329
     15          6    90000002        4.643939   -0.510126    0.161080
     16          6    90000002        4.387207   -0.991774    1.598284
     17          7    20001014        5.532310   -1.447033   -0.513110
     18          6    20001002        6.848014   -1.557305   -0.166963
     19          6    20001001        7.716199   -2.268462   -1.179543
     20          8    20001024        7.289254   -1.125288    0.861536
     21          6    20001002        5.266176    0.901391    0.065337
     22          8    20001024        5.888704    1.224286   -0.910433
     23          7    20001014        4.994073    1.770304    1.062800
     24          6    20001001        5.586458    3.092151    1.060850
     25          7    20001014       -5.940471   -0.296393   -0.956565
     26          6    20001002       -7.125846   -0.704513   -0.419914
     27          6    20001001       -8.091073   -1.338206   -1.400165
     28          8    20001024       -7.384205   -0.583700    0.744042
     29          1    20001035       -4.848842   -2.009699    2.970770
     30          1    20001035       -3.170981   -1.520353    2.794706
     31          1    20001035       -3.718551   -3.030106    2.076160
     32          1    20001029       -4.727254   -1.858431    0.337362
     33          1    20001034       -5.004426    2.639084    0.503457
     34          1    20001034       -5.962071    2.417623   -0.960620
     35          1    20001034       -6.552839    1.843607    0.598917
     36          1    20001034       -4.221002    1.166860   -2.168674
     37          1    20001034       -3.455460   -0.246431   -1.505749
     38          1    20001034       -2.119706    1.920956   -1.775001
     39          1    20001034       -2.967523    2.552511   -0.399008
     40          1    20001034       -1.966822    0.806525    1.044219
     41          1    20001034       -0.781187    1.767465    0.228368
     42          1    20001033       -1.491898   -1.150751   -0.314575
     43          1    20001033        0.522064   -1.362115   -1.426617
     44          1    20001034        0.721082    1.691016   -1.423949
     45          1    20001034        1.544816    0.586311   -2.481216
     46          1    20001034        3.038830    1.644564   -0.829526
     47          1    20001034        2.123597    0.981352    0.482205
     48          1    20001034        3.491961   -0.755762   -1.616736
     49          1    20001034        2.692033   -1.313161   -0.173671
     50          1    20001034        4.050711   -2.021430    1.564202
     51          1    20001034        3.604613   -0.409825    2.073955
     52          1    20001034        5.283410   -0.950010    2.198961
     53          1    20001029        5.343176   -1.591855   -1.478495
     54          1    20001034        8.605502   -2.633090   -0.688374
     55          1    20001034        8.008444   -1.556361   -1.945460
     56          1    20001034        7.195740   -3.091483   -1.657182
     57          1    20001029        4.695240    1.407709    1.937176
     58          1    20001035        5.152015    3.666634    1.868408
     59          1    20001035        5.374494    3.585527    0.123686
     60          1    20001035        6.663100    3.051151    1.190906
     61          1    20001029       -5.874653   -0.315246   -1.949973
     62          1    20001034       -8.787436   -1.957409   -0.853686
     63          1    20001034       -7.582721   -1.933894   -2.150021
     64          1    20001034       -8.647750   -0.556822   -1.907461
 ---------------------------------------------------------------------

 SCF Done:  E(RHF) =  -1295.61791244     A.U. after   14 cycles

 The electronic state is 1-A.
 Alpha  occ. eigenvalues --  -20.53733 -20.52085 -20.51986 -20.51675 -15.59699
 Alpha  occ. eigenvalues --  -15.57834 -15.57656 -15.57646 -11.36050 -11.34309
 Alpha  occ. eigenvalues --  -11.33992 -11.33683 -11.29138 -11.28528 -11.25089
 Alpha  occ. eigenvalues --  -11.25017 -11.24422 -11.24117 -11.23462 -11.22842
 Alpha  occ. eigenvalues --  -11.22635 -11.22569 -11.22562 -11.22333 -11.22132
 Alpha  occ. eigenvalues --  -11.21809 -11.21677 -11.20965  -1.40674  -1.39412
 Alpha  occ. eigenvalues --   -1.38841  -1.38136  -1.25529  -1.23615  -1.22648
 Alpha  occ. eigenvalues --   -1.22200  -1.10934  -1.09446  -1.07276  -1.04199
 Alpha  occ. eigenvalues --   -1.01269  -0.99441  -0.98600  -0.95637  -0.95231
 Alpha  occ. eigenvalues --   -0.94650  -0.92410  -0.87549  -0.85915  -0.83097
 Alpha  occ. eigenvalues --   -0.81791  -0.79268  -0.78198  -0.77300  -0.76787
 Alpha  occ. eigenvalues --   -0.71747  -0.71367  -0.71236  -0.69017  -0.68255
 Alpha  occ. eigenvalues --   -0.66617  -0.65937  -0.64948  -0.64144  -0.63841
 Alpha  occ. eigenvalues --   -0.63264  -0.62650  -0.62310  -0.61486  -0.61170
 Alpha  occ. eigenvalues --   -0.60688  -0.60007  -0.59452  -0.58731  -0.58674
 Alpha  occ. eigenvalues --   -0.58314  -0.57601  -0.57050  -0.56346  -0.55704
 Alpha  occ. eigenvalues --   -0.55420  -0.54987  -0.54797  -0.54609  -0.53905
 Alpha  occ. eigenvalues --   -0.53301  -0.52914  -0.52529  -0.52203  -0.51314
 Alpha  occ. eigenvalues --   -0.51109  -0.50566  -0.49874  -0.49321  -0.48559
 Alpha  occ. eigenvalues --   -0.48066  -0.47091  -0.46811  -0.44681  -0.42965
 Alpha  occ. eigenvalues --   -0.42053  -0.41624  -0.41040  -0.39398  -0.38896
 Alpha  occ. eigenvalues --   -0.38446  -0.38381  -0.34636
 Alpha virt. eigenvalues --    0.17235   0.18719   0.19892   0.19999   0.20187
 Alpha virt. eigenvalues --    0.21560   0.21880   0.22871   0.23139   0.23757
 Alpha virt. eigenvalues --    0.25138   0.25436   0.25755   0.26901   0.27319

 Mulliken atomic charges:
              1
     1  C   -0.279592
     2  N   -0.783353
     3  C    0.821991
     4  O   -0.629034
     5  C    0.102301
     6  C   -0.472715
     7  C   -0.334535
     8  C   -0.311622
     9  C   -0.372735
    10  C   -0.181149
    11  C   -0.177699
    12  C   -0.353212
    13  C   -0.317291
    14  C   -0.324403
    15  C    0.121374
    16  C   -0.513869
    17  N   -0.792108
    18  C    0.766890
    19  C   -0.594471
    20  O   -0.613035
    21  C    0.792105
    22  O   -0.637195
    23  N   -0.794569
    24  C   -0.274902
    25  N   -0.843094
    26  C    0.744510
    27  C   -0.588719
    28  O   -0.591843
    29  H    0.187260
    30  H    0.197257
    31  H    0.163015
    32  H    0.391682
    33  H    0.198223
    34  H    0.144536
    35  H    0.212674
    36  H    0.162042
    37  H    0.182650
    38  H    0.165693
    39  H    0.179249
    40  H    0.212421
    41  H    0.171121
    42  H    0.181041
    43  H    0.170890
    44  H    0.176437
    45  H    0.167794
    46  H    0.190517
    47  H    0.167074
    48  H    0.158322
    49  H    0.186739
    50  H    0.184361
    51  H    0.152085
    52  H    0.224007
    53  H    0.383698
    54  H    0.211478
    55  H    0.209192
    56  H    0.176722
    57  H    0.396035
    58  H    0.165895
    59  H    0.195813
    60  H    0.185478
    61  H    0.382866
    62  H    0.218783
    63  H    0.177412
    64  H    0.201510
 Sum of Mulliken atomic charges =   0.00000

 Dipole moment (field-independent basis, Debye):
    X=             -3.3193    Y=             -2.6756    Z=             -5.3854  Tot=              6.8687
 Quadrupole moment (field-independent basis, Debye-Ang):
   XX=           -206.3443   YY=           -159.8965   ZZ=           -170.7417
   XY=              5.8995   XZ=             29.7512   YZ=              6.6387

 Normal termination of Gaussian 09 at Thu Dec  5 19:35:23 2019.
