 Gaussian 09, Revision A.02,
 Gaussian 09:  EM64L-G09RevA.02 11-Jun-2009

 ---------------------------------
 #SP HF/6-31G* Geom=(ModRedundant)
 ---------------------------------

 ------------
 paramfit run
 ------------
 Symbolic Z-matrix:
 Charge =  0 Multiplicity = 1

                         Standard orientation:
 ---------------------------------------------------------------------
 Center     Atomic      Atomic             Coordinates (Angstroms)
 Number     Number       Type             X           Y           Z
 ---------------------------------------------------------------------
      1          6    20001001        3.597438    2.856852    0.769913
      2          7    20001014        4.008222    1.605076    0.168616
      3          6    20001002        4.255624    0.529156    0.951749
      4          8    20001024        3.939102    0.486361    2.108351
      5          6    90000001        4.846654   -0.706410    0.249292
      6          6    90000002        5.489322   -1.629699    1.289656
      7          6    90000002        3.742196   -1.441546   -0.557771
      8          6    90000002        2.518050   -2.000710    0.189517
      9          6    90000002        1.366636   -1.025710    0.506150
     10          6    20001004        0.792409   -0.336984   -0.709662
     11          6    20001004       -0.298084   -0.666185   -1.382869
     12          6    90000002       -1.238691   -1.813578   -1.102689
     13          6    90000002       -2.549874   -1.403040   -0.408555
     14          6    90000002       -3.382937   -0.424541   -1.247279
     15          6    90000002       -4.807192   -0.067577   -0.748561
     16          6    90000002       -5.728908   -0.009140   -1.977575
     17          7    20001014       -5.261855   -1.120637    0.149146
     18          6    20001002       -6.424995   -1.004153    0.853840
     19          6    20001001       -6.572531   -1.972334    2.005214
     20          8    20001024       -7.271010   -0.197079    0.585450
     21          6    20001002       -4.731315    1.252060    0.052392
     22          8    20001024       -4.413616    1.240155    1.211208
     23          7    20001014       -4.932802    2.403229   -0.624508
     24          6    20001001       -4.926210    3.671680    0.074915
     25          7    20001014        5.835692   -0.298752   -0.759197
     26          6    20001002        6.965632    0.407381   -0.468881
     27          6    20001001        8.014928    0.418960   -1.561109
     28          8    20001024        7.116416    0.988049    0.568534
     29          1    20001035        4.383293    3.288750    1.378884
     30          1    20001035        2.730087    2.695130    1.393027
     31          1    20001035        3.336954    3.550513   -0.019604
     32          1    20001029        4.504353    1.652889   -0.690368
     33          1    20001034        4.778035   -1.918862    2.048200
     34          1    20001034        5.865373   -2.521749    0.797650
     35          1    20001034        6.308858   -1.127825    1.783021
     36          1    20001034        4.238944   -2.284198   -1.033584
     37          1    20001034        3.411730   -0.790385   -1.360928
     38          1    20001034        2.112560   -2.792192   -0.433983
     39          1    20001034        2.832319   -2.475994    1.112943
     40          1    20001034        1.698366   -0.276719    1.213490
     41          1    20001034        0.595382   -1.595039    1.012970
     42          1    20001033        1.344536    0.522763   -1.053323
     43          1    20001033       -0.559458   -0.050744   -2.229437
     44          1    20001034       -0.749107   -2.559664   -0.488580
     45          1    20001034       -1.475497   -2.304992   -2.045573
     46          1    20001034       -3.111753   -2.309439   -0.200931
     47          1    20001034       -2.322686   -0.966286    0.555012
     48          1    20001034       -3.497616   -0.819316   -2.254522
     49          1    20001034       -2.835117    0.505940   -1.339203
     50          1    20001034       -5.796091   -1.001371   -2.408326
     51          1    20001034       -5.326049    0.649428   -2.740053
     52          1    20001034       -6.725500    0.311712   -1.713764
     53          1    20001029       -4.540774   -1.620263    0.617258
     54          1    20001034       -7.618480   -2.069235    2.253532
     55          1    20001034       -6.046186   -1.569638    2.865400
     56          1    20001034       -6.157068   -2.947307    1.774563
     57          1    20001029       -5.417543    2.364132   -1.489843
     58          1    20001035       -4.982845    4.468806   -0.654677
     59          1    20001035       -4.009777    3.773333    0.637448
     60          1    20001035       -5.761681    3.756888    0.762288
     61          1    20001029        5.861276   -0.854801   -1.584850
     62          1    20001034        8.656413    1.276597   -1.419937
     63          1    20001034        7.575836    0.450005   -2.551959
     64          1    20001034        8.618060   -0.480071   -1.485104
 ---------------------------------------------------------------------

 SCF Done:  E(RHF) =  -1295.61373311     A.U. after   14 cycles

 The electronic state is 1-A.
 Alpha  occ. eigenvalues --  -20.53645 -20.51889 -20.51824 -20.51556 -15.59612
 Alpha  occ. eigenvalues --  -15.57879 -15.57493 -15.57183 -11.35965 -11.34055
 Alpha  occ. eigenvalues --  -11.33838 -11.33606 -11.29039 -11.28478 -11.25016
 Alpha  occ. eigenvalues --  -11.24798 -11.24357 -11.24048 -11.23371 -11.23073
 Alpha  occ. eigenvalues --  -11.22931 -11.22779 -11.22377 -11.22318 -11.22116
 Alpha  occ. eigenvalues --  -11.21824 -11.21688 -11.20873  -1.40581  -1.39239
 Alpha  occ. eigenvalues --   -1.38682  -1.37968  -1.25433  -1.23492  -1.22590
 Alpha  occ. eigenvalues --   -1.22041  -1.10888  -1.09313  -1.07206  -1.04401
 Alpha  occ. eigenvalues --   -1.01340  -0.99312  -0.98765  -0.95459  -0.95195
 Alpha  occ. eigenvalues --   -0.94635  -0.92323  -0.87492  -0.85870  -0.82926
 Alpha  occ. eigenvalues --   -0.81622  -0.79434  -0.78794  -0.77148  -0.76610
 Alpha  occ. eigenvalues --   -0.71970  -0.71379  -0.71149  -0.68969  -0.68076
 Alpha  occ. eigenvalues --   -0.66736  -0.65844  -0.64387  -0.64082  -0.63602
 Alpha  occ. eigenvalues --   -0.62563  -0.62482  -0.62233  -0.61258  -0.61022
 Alpha  occ. eigenvalues --   -0.60856  -0.59887  -0.59241  -0.58676  -0.58447
 Alpha  occ. eigenvalues --   -0.58260  -0.57874  -0.56761  -0.56530  -0.55992
 Alpha  occ. eigenvalues --   -0.55486  -0.54985  -0.54857  -0.54459  -0.54021
 Alpha  occ. eigenvalues --   -0.53248  -0.52780  -0.52655  -0.51968  -0.51571
 Alpha  occ. eigenvalues --   -0.51027  -0.50324  -0.49715  -0.49287  -0.48797
 Alpha  occ. eigenvalues --   -0.48505  -0.46983  -0.46558  -0.44716  -0.42868
 Alpha  occ. eigenvalues --   -0.41940  -0.41551  -0.40915  -0.39276  -0.38783
 Alpha  occ. eigenvalues --   -0.38277  -0.38074  -0.34631
 Alpha virt. eigenvalues --    0.17323   0.18803   0.19970   0.20076   0.20246
 Alpha virt. eigenvalues --    0.21632   0.22537   0.23177   0.23272   0.24177
 Alpha virt. eigenvalues --    0.25139   0.25459   0.26758   0.27015   0.27693

 Mulliken atomic charges:
              1
     1  C   -0.280247
     2  N   -0.783503
     3  C    0.821631
     4  O   -0.627934
     5  C    0.102489
     6  C   -0.472757
     7  C   -0.334256
     8  C   -0.312003
     9  C   -0.372977
    10  C   -0.176118
    11  C   -0.177949
    12  C   -0.346808
    13  C   -0.343890
    14  C   -0.336772
    15  C    0.129235
    16  C   -0.518389
    17  N   -0.808703
    18  C    0.771616
    19  C   -0.596426
    20  O   -0.615185
    21  C    0.798685
    22  O   -0.631980
    23  N   -0.803385
    24  C   -0.274673
    25  N   -0.843029
    26  C    0.744585
    27  C   -0.588691
    28  O   -0.591510
    29  H    0.186847
    30  H    0.199962
    31  H    0.162554
    32  H    0.391157
    33  H    0.198608
    34  H    0.143889
    35  H    0.212802
    36  H    0.161346
    37  H    0.182334
    38  H    0.163749
    39  H    0.179651
    40  H    0.215789
    41  H    0.171326
    42  H    0.182335
    43  H    0.171624
    44  H    0.175968
    45  H    0.165560
    46  H    0.154928
    47  H    0.199338
    48  H    0.173413
    49  H    0.195402
    50  H    0.184226
    51  H    0.148619
    52  H    0.225155
    53  H    0.402995
    54  H    0.210738
    55  H    0.209871
    56  H    0.175413
    57  H    0.395076
    58  H    0.163660
    59  H    0.199484
    60  H    0.185443
    61  H    0.382499
    62  H    0.218768
    63  H    0.177170
    64  H    0.201246
 Sum of Mulliken atomic charges =   0.00000

 Dipole moment (field-independent basis, Debye):
    X=              2.7194    Y=             -2.3473    Z=             -7.9548  Tot=              8.7283
 Quadrupole moment (field-independent basis, Debye-Ang):
   XX=           -191.7434   YY=           -154.5508   ZZ=           -174.4876
   XY=             -6.8012   XZ=            -20.9656   YZ=            -11.2570

 Normal termination of Gaussian 09 at Thu Dec  5 19:35:08 2019.
