 Gaussian 09, Revision A.02,
 Gaussian 09:  EM64L-G09RevA.02 11-Jun-2009

 ---------------------------------
 #SP HF/6-31G* Geom=(ModRedundant)
 ---------------------------------

 ------------
 paramfit run
 ------------
 Symbolic Z-matrix:
 Charge =  0 Multiplicity = 1

                         Standard orientation:
 ---------------------------------------------------------------------
 Center     Atomic      Atomic             Coordinates (Angstroms)
 Number     Number       Type             X           Y           Z
 ---------------------------------------------------------------------
      1          6    20001001        3.538589    2.652944    1.355070
      2          7    20001014        3.972577    1.563099    0.505872
      3          6    20001002        4.254825    0.355660    1.048583
      4          8    20001024        3.952675    0.067168    2.173404
      5          6    90000001        4.867447   -0.692793    0.102629
      6          6    90000002        5.544076   -1.793682    0.926072
      7          6    90000002        3.771906   -1.274231   -0.831887
      8          6    90000002        2.570244   -2.007042   -0.208481
      9          6    90000002        1.399318   -1.148503    0.309670
     10          6    20001004        0.794763   -0.239115   -0.734267
     11          6    20001004       -0.295089   -0.450706   -1.454134
     12          6    90000002       -1.204450   -1.655258   -1.410915
     13          6    90000002       -2.517141   -1.430830   -0.638879
     14          6    90000002       -3.383125   -0.322446   -1.252451
     15          6    90000002       -4.809788   -0.113080   -0.681975
     16          6    90000002       -5.806690   -0.330716   -1.831876
     17          7    20001014       -5.044042   -1.106041    0.357586
     18          6    20001002       -6.164025   -1.071944    1.137027
     19          6    20001001       -6.091627   -1.908245    2.394074
     20          8    20001024       -7.136287   -0.429454    0.852323
     21          6    20001002       -4.880282    1.289456   -0.036494
     22          8    20001024       -4.490829    1.459504    1.087490
     23          7    20001014       -5.293975    2.312601   -0.814963
     24          6    20001001       -5.431710    3.643065   -0.258999
     25          7    20001014        5.834757   -0.060452   -0.806155
     26          6    20001002        6.950562    0.599795   -0.383397
     27          6    20001001        7.986715    0.863525   -1.456221
     28          8    20001024        7.099134    0.957872    0.750555
     29          1    20001035        4.320698    2.970314    2.035167
     30          1    20001035        2.682578    2.343771    1.936774
     31          1    20001035        3.252421    3.487441    0.727315
     32          1    20001029        4.457554    1.799821   -0.327822
     33          1    20001034        4.848699   -2.251374    1.613023
     34          1    20001034        5.935907   -2.555079    0.258256
     35          1    20001034        6.356842   -1.383157    1.507284
     36          1    20001034        4.283383   -1.987511   -1.474416
     37          1    20001034        3.416650   -0.480314   -1.481324
     38          1    20001034        2.176881   -2.663271   -0.979355
     39          1    20001034        2.906436   -2.654131    0.595027
     40          1    20001034        1.720932   -0.553035    1.154268
     41          1    20001034        0.647883   -1.829920    0.692880
     42          1    20001033        1.322004    0.687057   -0.896544
     43          1    20001033       -0.580911    0.319015   -2.153847
     44          1    20001034       -0.690003   -2.498926   -0.967029
     45          1    20001034       -1.440087   -1.947750   -2.433421
     46          1    20001034       -3.054559   -2.374849   -0.619276
     47          1    20001034       -2.289563   -1.196318    0.392645
     48          1    20001034       -3.499748   -0.503968   -2.318746
     49          1    20001034       -2.859020    0.620915   -1.153791
     50          1    20001034       -5.752705   -1.366427   -2.146470
     51          1    20001034       -5.556113    0.283176   -2.690787
     52          1    20001034       -6.821011   -0.124423   -1.524732
     53          1    20001029       -4.228089   -1.440295    0.817160
     54          1    20001034       -7.093392   -2.121365    2.734819
     55          1    20001034       -5.577188   -1.336605    3.160693
     56          1    20001034       -5.551147   -2.835391    2.237029
     57          1    20001029       -5.821872    2.103609   -1.629186
     58          1    20001035       -5.653085    4.332359   -1.063230
     59          1    20001035       -4.506543    3.938506    0.213663
     60          1    20001035       -6.224812    3.690494    0.480253
     61          1    20001029        5.864317   -0.433514   -1.728922
     62          1    20001034        8.608876    1.690019   -1.145099
     63          1    20001034        7.535700    1.086723   -2.416595
     64          1    20001034        8.612210   -0.015883   -1.571113
 ---------------------------------------------------------------------

 SCF Done:  E(RHF) =  -1295.61173113     A.U. after   14 cycles

 The electronic state is 1-A.
 Alpha  occ. eigenvalues --  -20.53650 -20.51868 -20.51836 -20.51516 -15.59621
 Alpha  occ. eigenvalues --  -15.57913 -15.57488 -15.57214 -11.35970 -11.34035
 Alpha  occ. eigenvalues --  -11.33849 -11.33618 -11.29056 -11.28435 -11.25053
 Alpha  occ. eigenvalues --  -11.24768 -11.24358 -11.24073 -11.23302 -11.23236
 Alpha  occ. eigenvalues --  -11.22997 -11.22824 -11.22340 -11.22330 -11.22130
 Alpha  occ. eigenvalues --  -11.21783 -11.21755 -11.20894  -1.40586  -1.39226
 Alpha  occ. eigenvalues --   -1.38693  -1.37953  -1.25441  -1.23499  -1.22607
 Alpha  occ. eigenvalues --   -1.22037  -1.10929  -1.09343  -1.07218  -1.04421
 Alpha  occ. eigenvalues --   -1.01346  -0.99318  -0.98744  -0.95447  -0.95227
 Alpha  occ. eigenvalues --   -0.94642  -0.92386  -0.87599  -0.85944  -0.82886
 Alpha  occ. eigenvalues --   -0.81655  -0.79407  -0.78771  -0.77148  -0.76451
 Alpha  occ. eigenvalues --   -0.71959  -0.71440  -0.71167  -0.68978  -0.68128
 Alpha  occ. eigenvalues --   -0.66703  -0.65850  -0.64642  -0.64114  -0.63426
 Alpha  occ. eigenvalues --   -0.62739  -0.62555  -0.62251  -0.61262  -0.61023
 Alpha  occ. eigenvalues --   -0.60795  -0.59885  -0.59242  -0.58676  -0.58497
 Alpha  occ. eigenvalues --   -0.58250  -0.57713  -0.57071  -0.56560  -0.55980
 Alpha  occ. eigenvalues --   -0.55346  -0.55028  -0.54835  -0.54432  -0.53969
 Alpha  occ. eigenvalues --   -0.53271  -0.52828  -0.52780  -0.52086  -0.51219
 Alpha  occ. eigenvalues --   -0.50984  -0.50417  -0.49735  -0.49325  -0.48796
 Alpha  occ. eigenvalues --   -0.48547  -0.47023  -0.46677  -0.44774  -0.42877
 Alpha  occ. eigenvalues --   -0.41952  -0.41500  -0.40876  -0.39285  -0.38745
 Alpha  occ. eigenvalues --   -0.38275  -0.38098  -0.34653
 Alpha virt. eigenvalues --    0.17310   0.18798   0.19975   0.20074   0.20229
 Alpha virt. eigenvalues --    0.21707   0.22358   0.23098   0.23304   0.24173
 Alpha virt. eigenvalues --    0.24910   0.25424   0.26523   0.26896   0.27583

 Mulliken atomic charges:
              1
     1  C   -0.280352
     2  N   -0.783443
     3  C    0.821637
     4  O   -0.628334
     5  C    0.102531
     6  C   -0.472713
     7  C   -0.334316
     8  C   -0.311784
     9  C   -0.372818
    10  C   -0.176599
    11  C   -0.177272
    12  C   -0.347562
    13  C   -0.344597
    14  C   -0.347982
    15  C    0.147179
    16  C   -0.518385
    17  N   -0.811219
    18  C    0.773511
    19  C   -0.595873
    20  O   -0.615411
    21  C    0.789267
    22  O   -0.631255
    23  N   -0.802496
    24  C   -0.274412
    25  N   -0.842996
    26  C    0.744602
    27  C   -0.588710
    28  O   -0.591473
    29  H    0.186740
    30  H    0.200016
    31  H    0.163204
    32  H    0.391225
    33  H    0.198300
    34  H    0.143911
    35  H    0.212887
    36  H    0.161414
    37  H    0.182636
    38  H    0.163836
    39  H    0.179411
    40  H    0.215736
    41  H    0.169303
    42  H    0.183172
    43  H    0.172996
    44  H    0.176039
    45  H    0.166620
    46  H    0.173924
    47  H    0.180822
    48  H    0.174173
    49  H    0.199995
    50  H    0.183972
    51  H    0.147847
    52  H    0.223973
    53  H    0.399420
    54  H    0.210523
    55  H    0.210207
    56  H    0.175730
    57  H    0.395318
    58  H    0.163692
    59  H    0.198658
    60  H    0.185777
    61  H    0.382510
    62  H    0.218852
    63  H    0.177244
    64  H    0.201193
 Sum of Mulliken atomic charges =   0.00000

 Dipole moment (field-independent basis, Debye):
    X=              2.6431    Y=             -1.2258    Z=             -8.2317  Tot=              8.7321
 Quadrupole moment (field-independent basis, Debye-Ang):
   XX=           -190.5296   YY=           -156.4304   ZZ=           -173.7266
   XY=             -2.5449   XZ=            -19.9327   YZ=             -9.6232

 Normal termination of Gaussian 09 at Thu Dec  5 19:45:17 2019.
