 Gaussian 09, Revision A.02,
 Gaussian 09:  EM64L-G09RevA.02 11-Jun-2009

 ---------------------------------
 #SP HF/6-31G* Geom=(ModRedundant)
 ---------------------------------

 ------------
 paramfit run
 ------------
 Symbolic Z-matrix:
 Charge =  0 Multiplicity = 1

                         Standard orientation:
 ---------------------------------------------------------------------
 Center     Atomic      Atomic             Coordinates (Angstroms)
 Number     Number       Type             X           Y           Z
 ---------------------------------------------------------------------
      1          6    20001001        3.891139    3.006353    0.112470
      2          7    20001014        4.226717    1.640376   -0.232115
      3          6    20001002        4.550937    0.758586    0.742275
      4          8    20001024        4.361328    0.983661    1.905519
      5          6    90000001        5.054837   -0.619538    0.277252
      6          6    90000002        5.800789   -1.307328    1.425443
      7          6    90000002        3.864980   -1.482028   -0.224697
      8          6    90000002        2.725611   -1.823751    0.752391
      9          6    90000002        1.621247   -0.768416    0.960441
     10          6    20001004        0.922893   -0.350290   -0.312253
     11          6    20001004       -0.236103   -0.787856   -0.777033
     12          6    90000002       -1.147802   -1.815248   -0.150117
     13          6    90000002       -2.373537   -1.221196    0.566989
     14          6    90000002       -3.286578   -0.429008   -0.378373
     15          6    90000002       -4.646215    0.072795    0.173194
     16          6    90000002       -4.643809   -0.155559    1.693490
     17          7    20001014       -4.761254    1.498272   -0.103049
     18          6    20001002       -5.917621    2.181030    0.141315
     19          6    20001001       -6.016824    3.529433   -0.534536
     20          8    20001024       -6.793334    1.750141    0.838886
     21          6    20001002       -5.781697   -0.659023   -0.577704
     22          8    20001024       -6.157054   -0.259283   -1.646930
     23          7    20001014       -6.249295   -1.804090   -0.035345
     24          6    20001001       -7.347122   -2.512563   -0.660680
     25          7    20001014        5.931264   -0.476440   -0.894426
     26          6    20001002        7.090293    0.242100   -0.889313
     27          6    20001001        8.015134   -0.021221   -2.059548
     28          8    20001024        7.356121    1.034106   -0.030127
     29          1    20001035        4.740963    3.538914    0.523720
     30          1    20001035        3.095430    3.013537    0.842894
     31          1    20001035        3.550890    3.514610   -0.780983
     32          1    20001029        4.627149    1.480950   -1.126835
     33          1    20001034        5.174117   -1.398931    2.299413
     34          1    20001034        6.115875   -2.297401    1.109667
     35          1    20001034        6.671998   -0.733302    1.705469
     36          1    20001034        4.302105   -2.424009   -0.548445
     37          1    20001034        3.453425   -1.016105   -1.114539
     38          1    20001034        2.250138   -2.721448    0.368096
     39          1    20001034        3.135167   -2.091048    1.720993
     40          1    20001034        2.032219    0.108749    1.443190
     41          1    20001034        0.905982   -1.187206    1.659616
     42          1    20001033        1.439774    0.394416   -0.895658
     43          1    20001033       -0.583895   -0.368483   -1.708123
     44          1    20001034       -0.599129   -2.420524    0.561265
     45          1    20001034       -1.488358   -2.496656   -0.928769
     46          1    20001034       -2.915134   -2.041322    1.030066
     47          1    20001034       -2.040635   -0.588162    1.378946
     48          1    20001034       -3.512110   -1.034246   -1.253792
     49          1    20001034       -2.746274    0.440740   -0.733284
     50          1    20001034       -3.882651    0.475137    2.137832
     51          1    20001034       -4.396066   -1.183729    1.936124
     52          1    20001034       -5.594412    0.100600    2.136745
     53          1    20001029       -4.246571    1.821175   -0.890162
     54          1    20001034       -6.743638    4.133421   -0.012998
     55          1    20001034       -6.355761    3.380595   -1.555365
     56          1    20001034       -5.062264    4.043689   -0.561703
     57          1    20001029       -6.096620   -1.965756    0.932056
     58          1    20001035       -7.487499   -3.454654   -0.147183
     59          1    20001035       -7.112448   -2.707549   -1.696795
     60          1    20001035       -8.269744   -1.942629   -0.619489
     61          1    20001029        5.863855   -1.202692   -1.572336
     62          1    20001034        8.673358    0.826549   -2.182027
     63          1    20001034        7.471477   -0.198054   -2.980806
     64          1    20001034        8.617454   -0.898640   -1.847066
 ---------------------------------------------------------------------

 SCF Done:  E(RHF) =  -1295.60964710     A.U. after   14 cycles

 The electronic state is 1-A.
 Alpha  occ. eigenvalues --  -20.53749 -20.52020 -20.52006 -20.51662 -15.59719
 Alpha  occ. eigenvalues --  -15.58041 -15.57676 -15.57575 -11.36065 -11.34203
 Alpha  occ. eigenvalues --  -11.34013 -11.33761 -11.29168 -11.28473 -11.25171
 Alpha  occ. eigenvalues --  -11.25031 -11.24432 -11.24162 -11.23395 -11.22957
 Alpha  occ. eigenvalues --  -11.22910 -11.22800 -11.22475 -11.22431 -11.22231
 Alpha  occ. eigenvalues --  -11.21878 -11.21403 -11.20994  -1.40689  -1.39377
 Alpha  occ. eigenvalues --   -1.38860  -1.38106  -1.25551  -1.23576  -1.22728
 Alpha  occ. eigenvalues --   -1.22219  -1.11101  -1.09607  -1.07351  -1.04158
 Alpha  occ. eigenvalues --   -1.01239  -0.99458  -0.98479  -0.95656  -0.95310
 Alpha  occ. eigenvalues --   -0.94538  -0.92841  -0.88161  -0.86254  -0.82632
 Alpha  occ. eigenvalues --   -0.81153  -0.79331  -0.78459  -0.77319  -0.76968
 Alpha  occ. eigenvalues --   -0.71968  -0.71415  -0.71248  -0.69034  -0.68403
 Alpha  occ. eigenvalues --   -0.66607  -0.65963  -0.64997  -0.64215  -0.64013
 Alpha  occ. eigenvalues --   -0.62936  -0.62579  -0.61844  -0.61612  -0.61253
 Alpha  occ. eigenvalues --   -0.61172  -0.60091  -0.59683  -0.59057  -0.58460
 Alpha  occ. eigenvalues --   -0.58253  -0.58179  -0.56943  -0.56283  -0.56102
 Alpha  occ. eigenvalues --   -0.55850  -0.55009  -0.54700  -0.54478  -0.54099
 Alpha  occ. eigenvalues --   -0.53059  -0.52891  -0.52387  -0.52100  -0.51239
 Alpha  occ. eigenvalues --   -0.51088  -0.50413  -0.49886  -0.49221  -0.48677
 Alpha  occ. eigenvalues --   -0.48078  -0.47204  -0.47095  -0.44699  -0.42984
 Alpha  occ. eigenvalues --   -0.42075  -0.41576  -0.40935  -0.39419  -0.38894
 Alpha  occ. eigenvalues --   -0.38465  -0.38434  -0.34756
 Alpha virt. eigenvalues --    0.17098   0.18703   0.19863   0.19886   0.20174
 Alpha virt. eigenvalues --    0.21637   0.22099   0.22713   0.23062   0.23820
 Alpha virt. eigenvalues --    0.25150   0.25234   0.25756   0.26489   0.27423

 Mulliken atomic charges:
              1
     1  C   -0.279733
     2  N   -0.783482
     3  C    0.821835
     4  O   -0.628765
     5  C    0.102362
     6  C   -0.472748
     7  C   -0.334549
     8  C   -0.311655
     9  C   -0.372689
    10  C   -0.180170
    11  C   -0.178540
    12  C   -0.349517
    13  C   -0.312928
    14  C   -0.352895
    15  C    0.143483
    16  C   -0.521323
    17  N   -0.795286
    18  C    0.766680
    19  C   -0.594521
    20  O   -0.613006
    21  C    0.789729
    22  O   -0.634292
    23  N   -0.802236
    24  C   -0.274527
    25  N   -0.843093
    26  C    0.744480
    27  C   -0.588745
    28  O   -0.591770
    29  H    0.187441
    30  H    0.197524
    31  H    0.162846
    32  H    0.391746
    33  H    0.198196
    34  H    0.144425
    35  H    0.212862
    36  H    0.162041
    37  H    0.182848
    38  H    0.164995
    39  H    0.179410
    40  H    0.213365
    41  H    0.170627
    42  H    0.181582
    43  H    0.172924
    44  H    0.175159
    45  H    0.168074
    46  H    0.163747
    47  H    0.177677
    48  H    0.191656
    49  H    0.177117
    50  H    0.187819
    51  H    0.149474
    52  H    0.227500
    53  H    0.384288
    54  H    0.211314
    55  H    0.208749
    56  H    0.177331
    57  H    0.396346
    58  H    0.164468
    59  H    0.197547
    60  H    0.186025
    61  H    0.382895
    62  H    0.218874
    63  H    0.177530
    64  H    0.201477
 Sum of Mulliken atomic charges =   0.00000

 Dipole moment (field-independent basis, Debye):
    X=              3.1332    Y=             -3.8102    Z=             -4.4188  Tot=              6.6227
 Quadrupole moment (field-independent basis, Debye-Ang):
   XX=           -205.3139   YY=           -156.2302   ZZ=           -176.5533
   XY=             -5.8655   XZ=            -35.3218   YZ=            -11.0467

 Normal termination of Gaussian 09 at Thu Dec  5 19:52:45 2019.
