 Gaussian 09, Revision A.02,
 Gaussian 09:  EM64L-G09RevA.02 11-Jun-2009

 ---------------------------------
 #SP HF/6-31G* Geom=(ModRedundant)
 ---------------------------------

 ------------
 paramfit run
 ------------
 Symbolic Z-matrix:
 Charge =  0 Multiplicity = 1

                         Standard orientation:
 ---------------------------------------------------------------------
 Center     Atomic      Atomic             Coordinates (Angstroms)
 Number     Number       Type             X           Y           Z
 ---------------------------------------------------------------------
      1          6    20001001        3.986485    2.793341    1.216518
      2          7    20001014        4.293382    1.640266    0.395860
      3          6    20001002        4.576079    0.452248    0.979645
      4          8    20001024        4.370046    0.239317    2.142382
      5          6    90000001        5.053208   -0.673015    0.043955
      6          6    90000002        5.759074   -1.757743    0.864296
      7          6    90000002        3.851414   -1.253048   -0.750310
      8          6    90000002        2.685109   -1.894833    0.022659
      9          6    90000002        1.604455   -0.956414    0.595540
     10          6    20001004        0.941616   -0.077963   -0.439471
     11          6    20001004       -0.219121   -0.277726   -1.042416
     12          6    90000002       -1.168785   -1.434949   -0.845630
     13          6    90000002       -2.392369   -1.108751    0.029586
     14          6    90000002       -3.266445    0.003547   -0.565138
     15          6    90000002       -4.623059    0.309065    0.121086
     16          6    90000002       -4.355336    0.477604    1.625536
     17          7    20001014       -5.146860    1.555370   -0.421026
     18          6    20001002       -6.398614    1.999543   -0.106576
     19          6    20001001       -6.940832    3.076205   -1.018499
     20          8    20001024       -7.026936    1.572745    0.821969
     21          6    20001002       -5.615329   -0.824253   -0.224917
     22          8    20001024       -6.223651   -0.801721   -1.260950
     23          7    20001014       -5.686130   -1.870605    0.626033
     24          6    20001001       -6.631671   -2.941854    0.388164
     25          7    20001014        5.955332   -0.136088   -0.985274
     26          6    20001002        7.132138    0.493913   -0.706175
     27          6    20001001        8.072175    0.651108   -1.883349
     28          8    20001024        7.401715    0.905621    0.386512
     29          1    20001035        4.841678    3.110655    1.802101
     30          1    20001035        3.177363    2.555922    1.891556
     31          1    20001035        3.676612    3.604937    0.570265
     32          1    20001029        4.706667    1.808887   -0.491297
     33          1    20001034        5.113610   -2.145016    1.637813
     34          1    20001034        6.054600   -2.571438    0.208703
     35          1    20001034        6.639223   -1.354277    1.343337
     36          1    20001034        4.270306   -2.022896   -1.394581
     37          1    20001034        3.469114   -0.479917   -1.409395
     38          1    20001034        2.194171   -2.572992   -0.669221
     39          1    20001034        3.069008   -2.512288    0.828106
     40          1    20001034        2.028509   -0.331562    1.370847
     41          1    20001034        0.865384   -1.580703    1.085306
     42          1    20001033        1.488564    0.812763   -0.703228
     43          1    20001033       -0.538097    0.465346   -1.756461
     44          1    20001034       -0.649597   -2.276176   -0.402632
     45          1    20001034       -1.511752   -1.771189   -1.823337
     46          1    20001034       -2.963652   -2.024534    0.153494
     47          1    20001034       -2.058934   -0.829485    1.020374
     48          1    20001034       -3.490634   -0.229863   -1.603788
     49          1    20001034       -2.697253    0.925689   -0.570222
     50          1    20001034       -3.735169    1.354347    1.771464
     51          1    20001034       -3.814326   -0.373351    2.026239
     52          1    20001034       -5.271034    0.616604    2.180438
     53          1    20001029       -4.846857    1.776783   -1.342811
     54          1    20001034       -7.724168    3.612647   -0.505007
     55          1    20001034       -7.362886    2.602758   -1.899887
     56          1    20001034       -6.168807    3.768070   -1.337377
     57          1    20001029       -5.367110   -1.744769    1.557537
     58          1    20001035       -6.447513   -3.730838    1.105459
     59          1    20001035       -6.495808   -3.333599   -0.609184
     60          1    20001035       -7.657798   -2.602490    0.486391
     61          1    20001029        5.882286   -0.559526   -1.883557
     62          1    20001034        8.754204    1.463659   -1.679459
     63          1    20001034        7.541918    0.842548   -2.809486
     64          1    20001034        8.647553   -0.261141   -2.003947
 ---------------------------------------------------------------------

 SCF Done:  E(RHF) =  -1295.62015979     A.U. after   14 cycles

 The electronic state is 1-A.
 Alpha  occ. eigenvalues --  -20.53744 -20.52085 -20.51997 -20.51699 -15.59714
 Alpha  occ. eigenvalues --  -15.58029 -15.57664 -15.57658 -11.36061 -11.34321
 Alpha  occ. eigenvalues --  -11.34004 -11.33751 -11.29159 -11.28519 -11.25166
 Alpha  occ. eigenvalues --  -11.25013 -11.24431 -11.24149 -11.23372 -11.22891
 Alpha  occ. eigenvalues --  -11.22804 -11.22743 -11.22554 -11.22400 -11.22199
 Alpha  occ. eigenvalues --  -11.21862 -11.21455 -11.20987  -1.40685  -1.39417
 Alpha  occ. eigenvalues --   -1.38852  -1.38144  -1.25544  -1.23587  -1.22748
 Alpha  occ. eigenvalues --   -1.22208  -1.11024  -1.09522  -1.07300  -1.04173
 Alpha  occ. eigenvalues --   -1.01254  -0.99460  -0.98519  -0.95642  -0.95290
 Alpha  occ. eigenvalues --   -0.94545  -0.92622  -0.87882  -0.86125  -0.82787
 Alpha  occ. eigenvalues --   -0.81529  -0.79277  -0.78288  -0.77309  -0.76846
 Alpha  occ. eigenvalues --   -0.71724  -0.71602  -0.71286  -0.69029  -0.68399
 Alpha  occ. eigenvalues --   -0.66580  -0.65949  -0.64701  -0.64217  -0.64020
 Alpha  occ. eigenvalues --   -0.63103  -0.62624  -0.62194  -0.61492  -0.61183
 Alpha  occ. eigenvalues --   -0.60979  -0.60037  -0.59586  -0.58898  -0.58681
 Alpha  occ. eigenvalues --   -0.58328  -0.57891  -0.57045  -0.56383  -0.55995
 Alpha  occ. eigenvalues --   -0.55651  -0.55004  -0.54691  -0.54511  -0.53677
 Alpha  occ. eigenvalues --   -0.53234  -0.52926  -0.52467  -0.51998  -0.51399
 Alpha  occ. eigenvalues --   -0.51133  -0.50504  -0.49986  -0.49277  -0.48686
 Alpha  occ. eigenvalues --   -0.48020  -0.47139  -0.46941  -0.44788  -0.42979
 Alpha  occ. eigenvalues --   -0.42068  -0.41510  -0.41059  -0.39411  -0.38916
 Alpha  occ. eigenvalues --   -0.38470  -0.38446  -0.34718
 Alpha virt. eigenvalues --    0.17160   0.18707   0.19686   0.19878   0.20148
 Alpha virt. eigenvalues --    0.21670   0.22398   0.23036   0.23160   0.23923
 Alpha virt. eigenvalues --    0.25163   0.25288   0.26376   0.26729   0.27748

 Mulliken atomic charges:
              1
     1  C   -0.279723
     2  N   -0.783435
     3  C    0.821884
     4  O   -0.628880
     5  C    0.102348
     6  C   -0.472727
     7  C   -0.334524
     8  C   -0.311689
     9  C   -0.372580
    10  C   -0.180194
    11  C   -0.177089
    12  C   -0.351364
    13  C   -0.322735
    14  C   -0.346231
    15  C    0.115077
    16  C   -0.516586
    17  N   -0.790740
    18  C    0.767199
    19  C   -0.594070
    20  O   -0.613050
    21  C    0.809470
    22  O   -0.638109
    23  N   -0.801460
    24  C   -0.275419
    25  N   -0.843096
    26  C    0.744490
    27  C   -0.588730
    28  O   -0.591774
    29  H    0.187324
    30  H    0.197621
    31  H    0.162969
    32  H    0.391671
    33  H    0.198143
    34  H    0.144466
    35  H    0.212806
    36  H    0.162079
    37  H    0.182753
    38  H    0.165335
    39  H    0.179247
    40  H    0.213186
    41  H    0.170302
    42  H    0.181500
    43  H    0.171023
    44  H    0.175274
    45  H    0.169521
    46  H    0.177629
    47  H    0.173946
    48  H    0.181461
    49  H    0.185965
    50  H    0.185084
    51  H    0.154426
    52  H    0.224348
    53  H    0.382419
    54  H    0.211467
    55  H    0.209099
    56  H    0.176956
    57  H    0.396800
    58  H    0.164879
    59  H    0.197651
    60  H    0.185711
    61  H    0.382877
    62  H    0.218841
    63  H    0.177458
    64  H    0.201496
 Sum of Mulliken atomic charges =   0.00000

 Dipole moment (field-independent basis, Debye):
    X=              3.3337    Y=             -0.8667    Z=             -5.4587  Tot=              6.4546
 Quadrupole moment (field-independent basis, Debye-Ang):
   XX=           -208.9303   YY=           -155.6228   ZZ=           -174.9156
   XY=             -2.1314   XZ=            -36.4344   YZ=            -11.5125

 Normal termination of Gaussian 09 at Thu Dec  5 20:12:32 2019.
