 Gaussian 09, Revision A.02,
 Gaussian 09:  EM64L-G09RevA.02 11-Jun-2009

 ---------------------------------
 #SP HF/6-31G* Geom=(ModRedundant)
 ---------------------------------

 ------------
 paramfit run
 ------------
 Symbolic Z-matrix:
 Charge =  0 Multiplicity = 1

                         Standard orientation:
 ---------------------------------------------------------------------
 Center     Atomic      Atomic             Coordinates (Angstroms)
 Number     Number       Type             X           Y           Z
 ---------------------------------------------------------------------
      1          6    20001001        3.521053    2.020276    2.216154
      2          7    20001014        3.965052    1.319641    1.029047
      3          6    20001002        4.297168    0.009551    1.103016
      4          8    20001024        4.033129   -0.670345    2.055787
      5          6    90000001        4.915909   -0.611453   -0.162250
      6          6    90000002        5.646232   -1.907009    0.206540
      7          6    90000002        3.814212   -0.863601   -1.227280
      8          6    90000002        2.651545   -1.813981   -0.888727
      9          6    90000002        1.469456   -1.239274   -0.083113
     10          6    20001004        0.811114   -0.041689   -0.727050
     11          6    20001004       -0.290325   -0.024299   -1.460050
     12          6    90000002       -1.161975   -1.198625   -1.835467
     13          6    90000002       -2.460224   -1.311644   -1.016112
     14          6    90000002       -3.374513   -0.090592   -1.183500
     15          6    90000002       -4.791444   -0.150379   -0.556301
     16          6    90000002       -5.743307   -0.733710   -1.613245
     17          7    20001014       -4.749923   -1.034987    0.600106
     18          6    20001002       -5.820886   -1.166811    1.436000
     19          6    20001001       -5.512186   -1.802185    2.772342
     20          8    20001024       -6.926571   -0.808194    1.139360
     21          6    20001002       -5.173631    1.265702   -0.069093
     22          8    20001024       -4.800920    1.658603    1.003588
     23          7    20001014       -5.843162    2.060786   -0.931387
     24          6    20001001       -6.276260    3.380681   -0.520894
     25          7    20001014        5.839970    0.337656   -0.800005
     26          6    20001002        6.946244    0.845793   -0.185492
     27          6    20001001        7.945803    1.511327   -1.108566
     28          8    20001024        7.113556    0.783381    0.999519
     29          1    20001035        4.310803    2.104403    2.953830
     30          1    20001035        2.690063    1.493265    2.661618
     31          1    20001035        3.193913    3.012010    1.930151
     32          1    20001029        4.420895    1.854637    0.327426
     33          1    20001034        4.982914   -2.604156    0.695343
     34          1    20001034        6.043047   -2.366752   -0.693689
     35          1    20001034        6.461267   -1.699629    0.884506
     36          1    20001034        4.329805   -1.282929   -2.088412
     37          1    20001034        3.418684    0.095357   -1.547026
     38          1    20001034        2.257965   -2.168026   -1.837075
     39          1    20001034        3.027664   -2.691161   -0.372525
     40          1    20001034        1.795072   -0.970815    0.913515
     41          1    20001034        0.748879   -2.039702    0.043049
     42          1    20001033        1.306134    0.900661   -0.556629
     43          1    20001033       -0.617063    0.932472   -1.836338
     44          1    20001034       -0.611249   -2.125206   -1.727698
     45          1    20001034       -1.415336   -1.117725   -2.891809
     46          1    20001034       -2.968596   -2.220411   -1.326075
     47          1    20001034       -2.212954   -1.450207    0.028152
     48          1    20001034       -3.513398    0.113927   -2.242942
     49          1    20001034       -2.876345    0.775095   -0.763066
     50          1    20001034       -5.454141   -1.759042   -1.812387
     51          1    20001034       -5.673080   -0.188793   -2.548936
     52          1    20001034       -6.767462   -0.732910   -1.271418
     53          1    20001029       -3.863894   -1.111092    1.044936
     54          1    20001034       -6.423242   -2.198960    3.193777
     55          1    20001034       -5.124937   -1.036721    3.438094
     56          1    20001034       -4.771683   -2.590214    2.688385
     57          1    20001029       -6.331308    1.636200   -1.684215
     58          1    20001035       -6.680418    3.895260   -1.382745
     59          1    20001035       -5.433732    3.939092   -0.140172
     60          1    20001035       -7.034336    3.332831    0.254209
     61          1    20001029        5.856595    0.317729   -1.795432
     62          1    20001034        8.550962    2.196076   -0.532481
     63          1    20001034        7.463492    2.043931   -1.920514
     64          1    20001034        8.594007    0.753782   -1.537236
 ---------------------------------------------------------------------

 SCF Done:  E(RHF) =  -1295.61647832     A.U. after   14 cycles

 The electronic state is 1-A.
 Alpha  occ. eigenvalues --  -20.53675 -20.51939 -20.51894 -20.51598 -15.59649
 Alpha  occ. eigenvalues --  -15.58003 -15.57535 -15.57365 -11.35994 -11.34106
 Alpha  occ. eigenvalues --  -11.33902 -11.33735 -11.29094 -11.28473 -11.25122
 Alpha  occ. eigenvalues --  -11.24820 -11.24372 -11.24109 -11.23271 -11.23213
 Alpha  occ. eigenvalues --  -11.22950 -11.22873 -11.22354 -11.22333 -11.22157
 Alpha  occ. eigenvalues --  -11.21837 -11.21704 -11.20933  -1.40613  -1.39300
 Alpha  occ. eigenvalues --   -1.38750  -1.38029  -1.25473  -1.23508  -1.22679
 Alpha  occ. eigenvalues --   -1.22083  -1.10964  -1.09387  -1.07241  -1.04361
 Alpha  occ. eigenvalues --   -1.01305  -0.99339  -0.98681  -0.95494  -0.95263
 Alpha  occ. eigenvalues --   -0.94613  -0.92484  -0.87709  -0.86008  -0.82716
 Alpha  occ. eigenvalues --   -0.81420  -0.79461  -0.78822  -0.77193  -0.76560
 Alpha  occ. eigenvalues --   -0.71785  -0.71518  -0.71218  -0.68999  -0.68190
 Alpha  occ. eigenvalues --   -0.66668  -0.65883  -0.65056  -0.64140  -0.63317
 Alpha  occ. eigenvalues --   -0.62983  -0.62553  -0.62258  -0.61324  -0.61072
 Alpha  occ. eigenvalues --   -0.60749  -0.59911  -0.59203  -0.58820  -0.58458
 Alpha  occ. eigenvalues --   -0.58275  -0.57739  -0.57134  -0.56642  -0.55982
 Alpha  occ. eigenvalues --   -0.55384  -0.55092  -0.54691  -0.54481  -0.53994
 Alpha  occ. eigenvalues --   -0.53212  -0.52929  -0.52825  -0.52183  -0.51141
 Alpha  occ. eigenvalues --   -0.50822  -0.50426  -0.49803  -0.49334  -0.48726
 Alpha  occ. eigenvalues --   -0.48511  -0.47089  -0.46811  -0.44730  -0.42908
 Alpha  occ. eigenvalues --   -0.41994  -0.41504  -0.40925  -0.39326  -0.38773
 Alpha  occ. eigenvalues --   -0.38360  -0.38325  -0.34689
 Alpha virt. eigenvalues --    0.17250   0.18775   0.19704   0.19949   0.20179
 Alpha virt. eigenvalues --    0.21605   0.21879   0.22984   0.23279   0.23773
 Alpha virt. eigenvalues --    0.25066   0.25294   0.26167   0.26761   0.27655

 Mulliken atomic charges:
              1
     1  C   -0.280134
     2  N   -0.783338
     3  C    0.821735
     4  O   -0.628999
     5  C    0.102513
     6  C   -0.472689
     7  C   -0.334490
     8  C   -0.311451
     9  C   -0.373106
    10  C   -0.179319
    11  C   -0.177677
    12  C   -0.352347
    13  C   -0.302556
    14  C   -0.354773
    15  C    0.127181
    16  C   -0.511179
    17  N   -0.801962
    18  C    0.771092
    19  C   -0.595295
    20  O   -0.614687
    21  C    0.798903
    22  O   -0.633843
    23  N   -0.802613
    24  C   -0.274949
    25  N   -0.842981
    26  C    0.744605
    27  C   -0.588743
    28  O   -0.591566
    29  H    0.186831
    30  H    0.198571
    31  H    0.164203
    32  H    0.391546
    33  H    0.198037
    34  H    0.144101
    35  H    0.212914
    36  H    0.161632
    37  H    0.183028
    38  H    0.164360
    39  H    0.179310
    40  H    0.214328
    41  H    0.168872
    42  H    0.183837
    43  H    0.175226
    44  H    0.176413
    45  H    0.166008
    46  H    0.172546
    47  H    0.157545
    48  H    0.171641
    49  H    0.201994
    50  H    0.184313
    51  H    0.146314
    52  H    0.224302
    53  H    0.392759
    54  H    0.210527
    55  H    0.210259
    56  H    0.177268
    57  H    0.395514
    58  H    0.164090
    59  H    0.198183
    60  H    0.185997
    61  H    0.382637
    62  H    0.218939
    63  H    0.177422
    64  H    0.201204
 Sum of Mulliken atomic charges =   0.00000

 Dipole moment (field-independent basis, Debye):
    X=              2.5324    Y=              0.9971    Z=             -7.9693  Tot=              8.4212
 Quadrupole moment (field-independent basis, Debye-Ang):
   XX=           -189.4030   YY=           -161.6778   ZZ=           -171.2798
   XY=              6.5486   XZ=            -16.1838   YZ=             -5.0106

 Normal termination of Gaussian 09 at Thu Dec  5 20:00:16 2019.
