 Gaussian 09, Revision A.02,
 Gaussian 09:  EM64L-G09RevA.02 11-Jun-2009

 ---------------------------------
 #SP HF/6-31G* Geom=(ModRedundant)
 ---------------------------------

 ------------
 paramfit run
 ------------
 Symbolic Z-matrix:
 Charge =  0 Multiplicity = 1

                         Standard orientation:
 ---------------------------------------------------------------------
 Center     Atomic      Atomic             Coordinates (Angstroms)
 Number     Number       Type             X           Y           Z
 ---------------------------------------------------------------------
      1          6    20001001        3.880250    2.563205   -1.501089
      2          7    20001014        4.196067    1.220576   -1.059669
      3          6    20001002        4.398649    0.972520    0.255450
      4          8    20001024        4.112749    1.762007    1.112607
      5          6    90000001        4.892451   -0.439943    0.616687
      6          6    90000002        5.506029   -0.425538    2.020666
      7          6    90000002        3.722542   -1.456419    0.518237
      8          6    90000002        2.487780   -1.263493    1.417003
      9          6    90000002        1.407976   -0.269528    0.945098
     10          6    20001004        0.843297   -0.578397   -0.421656
     11          6    20001004       -0.283907   -1.211173   -0.704078
     12          6    90000002       -1.285156   -1.782609    0.270968
     13          6    90000002       -2.548515   -0.923346    0.458467
     14          6    90000002       -3.342979   -0.746390   -0.842466
     15          6    90000002       -4.727947   -0.053610   -0.761445
     16          6    90000002       -4.965003    0.669017   -2.097508
     17          7    20001014       -5.748111   -1.076456   -0.575480
     18          6    20001002       -7.049548   -0.748761   -0.326614
     19          6    20001001       -7.898764   -1.876380    0.213861
     20          8    20001024       -7.493166    0.348934   -0.520030
     21          6    20001002       -4.741948    0.874427    0.474386
     22          8    20001024       -4.988130    0.429858    1.563276
     23          7    20001014       -4.369859    2.159767    0.291545
     24          6    20001001       -4.409337    3.095105    1.396889
     25          7    20001014        5.875965   -0.907503   -0.370996
     26          6    20001002        7.054976   -0.270960   -0.624804
     27          6    20001001        8.071855   -1.085208   -1.397510
     28          8    20001024        7.270364    0.854694   -0.274587
     29          1    20001035        4.708035    3.244891   -1.342897
     30          1    20001035        3.022454    2.933327   -0.958946
     31          1    20001035        3.640888    2.532708   -2.556612
     32          1    20001029        4.669843    0.629086   -1.701512
     33          1    20001034        4.799898   -0.063384    2.752209
     34          1    20001034        5.812427   -1.431585    2.291271
     35          1    20001034        6.368478    0.224366    2.047769
     36          1    20001034        4.152857   -2.423446    0.769048
     37          1    20001034        3.410356   -1.522450   -0.519289
     38          1    20001034        2.016927   -2.238202    1.505644
     39          1    20001034        2.798022   -0.986721    2.419260
     40          1    20001034        1.804980    0.737324    0.944707
     41          1    20001034        0.617677   -0.279196    1.687504
     42          1    20001033        1.437453   -0.232955   -1.252175
     43          1    20001033       -0.530581   -1.337342   -1.746668
     44          1    20001034       -0.825383   -1.925798    1.241314
     45          1    20001034       -1.578211   -2.773173   -0.074715
     46          1    20001034       -3.159100   -1.395823    1.222880
     47          1    20001034       -2.267841    0.042821    0.856680
     48          1    20001034       -3.510044   -1.719761   -1.298725
     49          1    20001034       -2.741683   -0.175661   -1.540364
     50          1    20001034       -5.040160   -0.072437   -2.884386
     51          1    20001034       -4.133929    1.321541   -2.344307
     52          1    20001034       -5.880886    1.240624   -2.084726
     53          1    20001029       -5.437489   -1.910273   -0.131660
     54          1    20001034       -8.938956   -1.655127    0.029175
     55          1    20001034       -7.742129   -1.944025    1.286248
     56          1    20001034       -7.640835   -2.831225   -0.231253
     57          1    20001029       -4.411121    2.537976   -0.625279
     58          1    20001035       -3.962738    4.027304    1.076772
     59          1    20001035       -3.844173    2.700955    2.228671
     60          1    20001035       -5.425064    3.281863    1.730320
     61          1    20001029        5.844013   -1.880241   -0.581489
     62          1    20001034        8.768671   -0.411629   -1.874703
     63          1    20001034        7.607814   -1.720199   -2.143836
     64          1    20001034        8.620359   -1.717889   -0.707104
 ---------------------------------------------------------------------

 SCF Done:  E(RHF) =  -1295.61807395     A.U. after   14 cycles

 The electronic state is 1-A.
 Alpha  occ. eigenvalues --  -20.53666 -20.52122 -20.51884 -20.51559 -15.59621
 Alpha  occ. eigenvalues --  -15.57916 -15.57672 -15.57572 -11.35984 -11.34309
 Alpha  occ. eigenvalues --  -11.33894 -11.33678 -11.29039 -11.28516 -11.24973
 Alpha  occ. eigenvalues --  -11.24957 -11.24371 -11.23999 -11.23259 -11.22679
 Alpha  occ. eigenvalues --  -11.22578 -11.22367 -11.22152 -11.21968 -11.21949
 Alpha  occ. eigenvalues --  -11.21756 -11.21589 -11.20865  -1.40604  -1.39416
 Alpha  occ. eigenvalues --   -1.38742  -1.38132  -1.25448  -1.23625  -1.22624
 Alpha  occ. eigenvalues --   -1.22117  -1.10714  -1.09259  -1.07184  -1.04139
 Alpha  occ. eigenvalues --   -1.01184  -0.99348  -0.98697  -0.95562  -0.95116
 Alpha  occ. eigenvalues --   -0.94580  -0.92153  -0.87240  -0.85694  -0.82935
 Alpha  occ. eigenvalues --   -0.81522  -0.79365  -0.78566  -0.77215  -0.76872
 Alpha  occ. eigenvalues --   -0.71808  -0.71262  -0.71041  -0.68943  -0.68002
 Alpha  occ. eigenvalues --   -0.66662  -0.65866  -0.64738  -0.63982  -0.63642
 Alpha  occ. eigenvalues --   -0.62634  -0.62424  -0.61950  -0.61516  -0.61163
 Alpha  occ. eigenvalues --   -0.60885  -0.59911  -0.59398  -0.58664  -0.58506
 Alpha  occ. eigenvalues --   -0.58237  -0.57688  -0.56672  -0.56388  -0.56069
 Alpha  occ. eigenvalues --   -0.55297  -0.54896  -0.54744  -0.54598  -0.53990
 Alpha  occ. eigenvalues --   -0.53099  -0.52825  -0.52424  -0.52044  -0.51315
 Alpha  occ. eigenvalues --   -0.51039  -0.50385  -0.49706  -0.49251  -0.48477
 Alpha  occ. eigenvalues --   -0.47972  -0.46904  -0.46534  -0.44431  -0.42885
 Alpha  occ. eigenvalues --   -0.41962  -0.41504  -0.41079  -0.39311  -0.38921
 Alpha  occ. eigenvalues --   -0.38360  -0.38266  -0.34435
 Alpha virt. eigenvalues --    0.17420   0.18786   0.19587   0.19976   0.20221
 Alpha virt. eigenvalues --    0.21501   0.21705   0.23234   0.23585   0.23776
 Alpha virt. eigenvalues --    0.25237   0.25616   0.26356   0.27092   0.27585

 Mulliken atomic charges:
              1
     1  C   -0.279460
     2  N   -0.783271
     3  C    0.822069
     4  O   -0.628598
     5  C    0.102251
     6  C   -0.472748
     7  C   -0.334368
     8  C   -0.311691
     9  C   -0.373283
    10  C   -0.181096
    11  C   -0.176266
    12  C   -0.353198
    13  C   -0.321010
    14  C   -0.345213
    15  C    0.120181
    16  C   -0.512998
    17  N   -0.788638
    18  C    0.766303
    19  C   -0.594532
    20  O   -0.612747
    21  C    0.819066
    22  O   -0.643130
    23  N   -0.805144
    24  C   -0.275802
    25  N   -0.843076
    26  C    0.744552
    27  C   -0.588682
    28  O   -0.591897
    29  H    0.187044
    30  H    0.197496
    31  H    0.162379
    32  H    0.391475
    33  H    0.198811
    34  H    0.144287
    35  H    0.212403
    36  H    0.161478
    37  H    0.182284
    38  H    0.165086
    39  H    0.179539
    40  H    0.212182
    41  H    0.174523
    42  H    0.179663
    43  H    0.169370
    44  H    0.177122
    45  H    0.158858
    46  H    0.185589
    47  H    0.182454
    48  H    0.170515
    49  H    0.185016
    50  H    0.184023
    51  H    0.149640
    52  H    0.224354
    53  H    0.383542
    54  H    0.211372
    55  H    0.209299
    56  H    0.176393
    57  H    0.396206
    58  H    0.166375
    59  H    0.198677
    60  H    0.184977
    61  H    0.382712
    62  H    0.218595
    63  H    0.177256
    64  H    0.201426
 Sum of Mulliken atomic charges =   0.00000

 Dipole moment (field-independent basis, Debye):
    X=              2.8362    Y=             -5.6982    Z=             -4.6308  Tot=              7.8713
 Quadrupole moment (field-independent basis, Debye-Ang):
   XX=           -196.8920   YY=           -159.3153   ZZ=           -170.9076
   XY=            -19.2516   XZ=            -11.2106   YZ=             -5.8892

 Normal termination of Gaussian 09 at Thu Dec  5 20:05:44 2019.
