 Gaussian 09, Revision A.02,
 Gaussian 09:  EM64L-G09RevA.02 11-Jun-2009

 ---------------------------------
 #SP HF/6-31G* Geom=(ModRedundant)
 ---------------------------------

 ------------
 paramfit run
 ------------
 Symbolic Z-matrix:
 Charge =  0 Multiplicity = 1

                         Standard orientation:
 ---------------------------------------------------------------------
 Center     Atomic      Atomic             Coordinates (Angstroms)
 Number     Number       Type             X           Y           Z
 ---------------------------------------------------------------------
      1          6    20001001        3.564213    2.770397    1.067446
      2          7    20001014        3.987892    1.592706    0.338896
      3          6    20001002        4.252213    0.445031    1.006043
      4          8    20001024        3.941438    0.279105    2.153053
      5          6    90000001        4.855467   -0.703783    0.177974
      6          6    90000002        5.514267   -1.721093    1.115473
      7          6    90000002        3.756664   -1.365925   -0.697129
      8          6    90000002        2.542957   -2.014899   -0.007649
      9          6    90000002        1.380891   -1.092664    0.411547
     10          6    20001004        0.792668   -0.289670   -0.724882
     11          6    20001004       -0.296638   -0.561702   -1.425003
     12          6    90000002       -1.221583   -1.743891   -1.261731
     13          6    90000002       -2.534663   -1.424052   -0.524786
     14          6    90000002       -3.383628   -0.375080   -1.255422
     15          6    90000002       -4.809978   -0.089827   -0.718019
     16          6    90000002       -5.779423   -0.167816   -1.908626
     17          7    20001014       -5.153218   -1.117753    0.255165
     18          6    20001002       -6.294183   -1.041715    1.000466
     19          6    20001001       -6.327819   -1.948851    2.209093
     20          8    20001024       -7.205723   -0.312725    0.723325
     21          6    20001002       -4.799100    1.276456    0.004390
     22          8    20001024       -4.437679    1.354529    1.147722
     23          7    20001014       -5.108534    2.369206   -0.726453
     24          6    20001001       -5.166870    3.673745   -0.099574
     25          7    20001014        5.834808   -0.181585   -0.786199
     26          6    20001002        6.957135    0.505335   -0.428156
     27          6    20001001        8.001299    0.643012   -1.516680
     28          8    20001024        7.105308    0.977805    0.663154
     29          1    20001035        4.347338    3.147270    1.715237
     30          1    20001035        2.701751    2.534115    1.673294
     31          1    20001035        3.291554    3.538374    0.354549
     32          1    20001029        4.479532    1.735241   -0.512138
     33          1    20001034        4.810052   -2.096083    1.842383
     34          1    20001034        5.899215   -2.552725    0.532858
     35          1    20001034        6.329677   -1.262266    1.655389
     36          1    20001034        4.261755   -2.148543   -1.258924
     37          1    20001034        3.414499   -0.639713   -1.427758
     38          1    20001034        2.144587   -2.743011   -0.708200
     39          1    20001034        2.867270   -2.578799    0.860805
     40          1    20001034        1.706413   -0.416409    1.191340
     41          1    20001034        0.619085   -1.721114    0.859360
     42          1    20001033        1.332474    0.607975   -0.979745
     43          1    20001033       -0.569466    0.134351   -2.202716
     44          1    20001034       -0.719975   -2.542967   -0.729439
     45          1    20001034       -1.456460   -2.138448   -2.249532
     46          1    20001034       -3.084248   -2.354192   -0.410016
     47          1    20001034       -2.308628   -1.086115    0.477979
     48          1    20001034       -3.497883   -0.665311   -2.297654
     49          1    20001034       -2.847883    0.566897   -1.252581
     50          1    20001034       -5.791201   -1.185800   -2.280313
     51          1    20001034       -5.454260    0.471547   -2.722790
     52          1    20001034       -6.785831    0.097583   -1.621493
     53          1    20001029       -4.380784   -1.537614    0.719681
     54          1    20001034       -7.353900   -2.103820    2.506082
     55          1    20001034       -5.799641   -1.460801    3.022704
     56          1    20001034       -5.852213   -2.904269    2.015812
     57          1    20001029       -5.621643    2.245847   -1.567173
     58          1    20001035       -5.308414    4.420947   -0.869362
     59          1    20001035       -4.239487    3.871819    0.417487
     60          1    20001035       -5.979658    3.740487    0.616440
     61          1    20001029        5.863630   -0.649139   -1.664897
     62          1    20001034        8.632654    1.489706   -1.289802
     63          1    20001034        7.557416    0.770425   -2.497641
     64          1    20001034        8.615941   -0.251221   -1.535760
 ---------------------------------------------------------------------

 SCF Done:  E(RHF) =  -1295.61227675     A.U. after   14 cycles

 The electronic state is 1-A.
 Alpha  occ. eigenvalues --  -20.53645 -20.51877 -20.51826 -20.51529 -15.59615
 Alpha  occ. eigenvalues --  -15.57892 -15.57487 -15.57196 -11.35966 -11.34042
 Alpha  occ. eigenvalues --  -11.33840 -11.33604 -11.29045 -11.28452 -11.25033
 Alpha  occ. eigenvalues --  -11.24777 -11.24356 -11.24059 -11.23329 -11.23163
 Alpha  occ. eigenvalues --  -11.22974 -11.22801 -11.22359 -11.22322 -11.22121
 Alpha  occ. eigenvalues --  -11.21807 -11.21720 -11.20882  -1.40581  -1.39229
 Alpha  occ. eigenvalues --   -1.38684  -1.37956  -1.25435  -1.23500  -1.22595
 Alpha  occ. eigenvalues --   -1.22035  -1.10908  -1.09327  -1.07212  -1.04417
 Alpha  occ. eigenvalues --   -1.01346  -0.99314  -0.98760  -0.95449  -0.95211
 Alpha  occ. eigenvalues --   -0.94642  -0.92354  -0.87549  -0.85910  -0.82919
 Alpha  occ. eigenvalues --   -0.81656  -0.79413  -0.78778  -0.77144  -0.76512
 Alpha  occ. eigenvalues --   -0.71972  -0.71401  -0.71155  -0.68973  -0.68104
 Alpha  occ. eigenvalues --   -0.66721  -0.65845  -0.64495  -0.64105  -0.63514
 Alpha  occ. eigenvalues --   -0.62616  -0.62556  -0.62245  -0.61258  -0.61017
 Alpha  occ. eigenvalues --   -0.60825  -0.59884  -0.59242  -0.58658  -0.58485
 Alpha  occ. eigenvalues --   -0.58250  -0.57809  -0.56912  -0.56542  -0.55984
 Alpha  occ. eigenvalues --   -0.55398  -0.55011  -0.54846  -0.54440  -0.53996
 Alpha  occ. eigenvalues --   -0.53273  -0.52778  -0.52745  -0.52031  -0.51367
 Alpha  occ. eigenvalues --   -0.51016  -0.50367  -0.49723  -0.49305  -0.48814
 Alpha  occ. eigenvalues --   -0.48525  -0.47001  -0.46618  -0.44747  -0.42870
 Alpha  occ. eigenvalues --   -0.41944  -0.41533  -0.40894  -0.39278  -0.38764
 Alpha  occ. eigenvalues --   -0.38272  -0.38065  -0.34641
 Alpha virt. eigenvalues --    0.17323   0.18802   0.19977   0.20092   0.20240
 Alpha virt. eigenvalues --    0.21674   0.22501   0.23128   0.23299   0.24235
 Alpha virt. eigenvalues --    0.24990   0.25451   0.26687   0.26930   0.27627

 Mulliken atomic charges:
              1
     1  C   -0.280328
     2  N   -0.783477
     3  C    0.821626
     4  O   -0.628108
     5  C    0.102515
     6  C   -0.472734
     7  C   -0.334276
     8  C   -0.311904
     9  C   -0.372833
    10  C   -0.176184
    11  C   -0.177577
    12  C   -0.346637
    13  C   -0.349005
    14  C   -0.342716
    15  C    0.141342
    16  C   -0.519338
    17  N   -0.810722
    18  C    0.772684
    19  C   -0.596050
    20  O   -0.615332
    21  C    0.792813
    22  O   -0.631341
    23  N   -0.802996
    24  C   -0.274475
    25  N   -0.843011
    26  C    0.744595
    27  C   -0.588700
    28  O   -0.591482
    29  H    0.186782
    30  H    0.200107
    31  H    0.162844
    32  H    0.391172
    33  H    0.198450
    34  H    0.143885
    35  H    0.212849
    36  H    0.161367
    37  H    0.182481
    38  H    0.163753
    39  H    0.179514
    40  H    0.215875
    41  H    0.170175
    42  H    0.182754
    43  H    0.172265
    44  H    0.175928
    45  H    0.166222
    46  H    0.166096
    47  H    0.191001
    48  H    0.174043
    49  H    0.197896
    50  H    0.184160
    51  H    0.148379
    52  H    0.224453
    53  H    0.401840
    54  H    0.210624
    55  H    0.210059
    56  H    0.175476
    57  H    0.395183
    58  H    0.163642
    59  H    0.199046
    60  H    0.185611
    61  H    0.382496
    62  H    0.218810
    63  H    0.177200
    64  H    0.201214
 Sum of Mulliken atomic charges =   0.00000

 Dipole moment (field-independent basis, Debye):
    X=              2.6791    Y=             -1.8025    Z=             -8.1300  Tot=              8.7478
 Quadrupole moment (field-independent basis, Debye-Ang):
   XX=           -191.1037   YY=           -155.2741   ZZ=           -174.2143
   XY=             -4.7771   XZ=            -20.6136   YZ=            -10.6095

 Normal termination of Gaussian 09 at Thu Dec  5 19:40:11 2019.
