 Gaussian 09, Revision A.02,
 Gaussian 09:  EM64L-G09RevA.02 11-Jun-2009

 ---------------------------------
 #SP HF/6-31G* Geom=(ModRedundant)
 ---------------------------------

 ------------
 paramfit run
 ------------
 Symbolic Z-matrix:
 Charge =  0 Multiplicity = 1

                         Standard orientation:
 ---------------------------------------------------------------------
 Center     Atomic      Atomic             Coordinates (Angstroms)
 Number     Number       Type             X           Y           Z
 ---------------------------------------------------------------------
      1          6    20001001       -3.807038    2.830297    0.822339
      2          7    20001014       -4.144093    1.426513    0.708182
      3          6    20001002       -4.344928    0.877653   -0.512689
      4          8    20001024       -4.041444    1.437372   -1.529723
      5          6    90000001       -4.861520   -0.572198   -0.533952
      6          6    90000002       -5.468322   -0.880610   -1.906729
      7          6    90000002       -3.709897   -1.554879   -0.187967
      8          6    90000002       -2.467871   -1.599537   -1.096269
      9          6    90000002       -1.373145   -0.539329   -0.863523
     10          6    20001004       -0.820176   -0.525019    0.542286
     11          6    20001004        0.294568   -1.090749    0.975937
     12          6    90000002        1.290198   -1.892336    0.172239
     13          6    90000002        2.569129   -1.121861   -0.202283
     14          6    90000002        3.360582   -0.654772    1.026678
     15          6    90000002        4.757726   -0.022768    0.796012
     16          6    90000002        5.220768    0.581410    2.131680
     17          7    20001014        5.681658   -1.074160    0.392954
     18          6    20001002        6.951849   -0.788733   -0.017169
     19          6    20001001        7.651080   -1.908817   -0.752897
     20          8    20001024        7.480121    0.268718    0.187448
     21          6    20001002        4.651092    0.997399   -0.360107
     22          8    20001024        4.716262    0.628388   -1.501822
     23          7    20001014        4.382294    2.280382   -0.035014
     24          6    20001001        4.319573    3.296437   -1.065499
     25          7    20001014       -5.857514   -0.777280    0.527823
     26          6    20001002       -7.026446   -0.080235    0.613845
     27          6    20001001       -8.060835   -0.672446    1.548426
     28          8    20001024       -7.220653    0.933892    0.005594
     29          1    20001035       -4.622131    3.468200    0.500388
     30          1    20001035       -2.940473    3.048090    0.215418
     31          1    20001035       -3.573076    3.046560    1.857156
     32          1    20001029       -4.631000    1.011183    1.467595
     33          1    20001034       -4.752668   -0.712963   -2.697087
     34          1    20001034       -5.790897   -1.917150   -1.934416
     35          1    20001034       -6.319224   -0.242028   -2.094094
     36          1    20001034       -4.155784   -2.546874   -0.206709
     37          1    20001034       -3.403658   -1.378544    0.838387
     38          1    20001034       -2.013610   -2.574861   -0.947919
     39          1    20001034       -2.768669   -1.562827   -2.138165
     40          1    20001034       -1.752606    0.445182   -1.104586
     41          1    20001034       -0.579742   -0.736803   -1.575808
     42          1    20001033       -1.412041    0.016403    1.262473
     43          1    20001033        0.534238   -0.970605    2.020870
     44          1    20001034        0.832455   -2.253708   -0.740640
     45          1    20001034        1.564425   -2.777523    0.744810
     46          1    20001034        3.174913   -1.771320   -0.828067
     47          1    20001034        2.307098   -0.272997   -0.820020
     48          1    20001034        3.508633   -1.495112    1.701544
     49          1    20001034        2.766097    0.074258    1.564685
     50          1    20001034        5.363174   -0.221982    2.845025
     51          1    20001034        4.471150    1.250486    2.541305
     52          1    20001034        6.156902    1.109166    2.027440
     53          1    20001029        5.264764   -1.855415   -0.059319
     54          1    20001034        8.717809   -1.751168   -0.704957
     55          1    20001034        7.341904   -1.885070   -1.793556
     56          1    20001034        7.404109   -2.882545   -0.343946
     57          1    20001029        4.573318    2.583429    0.890720
     58          1    20001035        3.976239    4.220462   -0.619159
     59          1    20001035        3.621717    2.995167   -1.832871
     60          1    20001035        5.287442    3.461376   -1.527860
     61          1    20001029       -5.843419   -1.673005    0.962594
     62          1    20001034       -8.748029    0.105805    1.846860
     63          1    20001034       -7.611309   -1.120128    2.427663
     64          1    20001034       -8.617074   -1.441740    1.022510
 ---------------------------------------------------------------------

 SCF Done:  E(RHF) =  -1295.62169296     A.U. after   14 cycles

 The electronic state is 1-A.
 Alpha  occ. eigenvalues --  -20.53656 -20.52069 -20.51861 -20.51553 -15.59613
 Alpha  occ. eigenvalues --  -15.57887 -15.57577 -15.57551 -11.35974 -11.34274
 Alpha  occ. eigenvalues --  -11.33873 -11.33660 -11.29029 -11.28547 -11.24953
 Alpha  occ. eigenvalues --  -11.24926 -11.24365 -11.23999 -11.23352 -11.22683
 Alpha  occ. eigenvalues --  -11.22533 -11.22479 -11.22220 -11.22198 -11.21995
 Alpha  occ. eigenvalues --  -11.21781 -11.21582 -11.20854  -1.40593  -1.39370
 Alpha  occ. eigenvalues --   -1.38718  -1.38088  -1.25438  -1.23563  -1.22594
 Alpha  occ. eigenvalues --   -1.22096  -1.10740  -1.09253  -1.07182  -1.04191
 Alpha  occ. eigenvalues --   -1.01212  -0.99327  -0.98721  -0.95538  -0.95115
 Alpha  occ. eigenvalues --   -0.94561  -0.92168  -0.87243  -0.85686  -0.82845
 Alpha  occ. eigenvalues --   -0.81365  -0.79452  -0.78722  -0.77195  -0.76859
 Alpha  occ. eigenvalues --   -0.71874  -0.71278  -0.71081  -0.68943  -0.67976
 Alpha  occ. eigenvalues --   -0.66694  -0.65856  -0.64581  -0.63954  -0.63684
 Alpha  occ. eigenvalues --   -0.62598  -0.62345  -0.61738  -0.61444  -0.61179
 Alpha  occ. eigenvalues --   -0.60917  -0.59901  -0.59359  -0.58700  -0.58452
 Alpha  occ. eigenvalues --   -0.58246  -0.57780  -0.56589  -0.56330  -0.56266
 Alpha  occ. eigenvalues --   -0.55434  -0.54848  -0.54710  -0.54575  -0.53949
 Alpha  occ. eigenvalues --   -0.53081  -0.52823  -0.52475  -0.52118  -0.51460
 Alpha  occ. eigenvalues --   -0.51032  -0.50319  -0.49764  -0.49257  -0.48515
 Alpha  occ. eigenvalues --   -0.48230  -0.46916  -0.46406  -0.44493  -0.42874
 Alpha  occ. eigenvalues --   -0.41948  -0.41484  -0.41069  -0.39296  -0.38840
 Alpha  occ. eigenvalues --   -0.38335  -0.38283  -0.34481
 Alpha virt. eigenvalues --    0.17347   0.18794   0.19616   0.19985   0.20230
 Alpha virt. eigenvalues --    0.21641   0.21797   0.23252   0.23282   0.23919
 Alpha virt. eigenvalues --    0.25262   0.25666   0.26472   0.27077   0.27617

 Mulliken atomic charges:
              1
     1  C   -0.279585
     2  N   -0.783362
     3  C    0.821948
     4  O   -0.628246
     5  C    0.102299
     6  C   -0.472783
     7  C   -0.334314
     8  C   -0.311850
     9  C   -0.373739
    10  C   -0.179637
    11  C   -0.176703
    12  C   -0.354097
    13  C   -0.309737
    14  C   -0.332820
    15  C    0.096048
    16  C   -0.509704
    17  N   -0.785946
    18  C    0.766835
    19  C   -0.595236
    20  O   -0.613523
    21  C    0.821797
    22  O   -0.640997
    23  N   -0.806504
    24  C   -0.275694
    25  N   -0.843077
    26  C    0.744557
    27  C   -0.588676
    28  O   -0.591808
    29  H    0.187025
    30  H    0.198043
    31  H    0.162196
    32  H    0.391365
    33  H    0.198958
    34  H    0.144154
    35  H    0.212471
    36  H    0.161390
    37  H    0.182143
    38  H    0.164627
    39  H    0.179812
    40  H    0.213050
    41  H    0.175244
    42  H    0.180126
    43  H    0.169443
    44  H    0.177007
    45  H    0.159358
    46  H    0.159560
    47  H    0.194259
    48  H    0.172876
    49  H    0.184327
    50  H    0.183441
    51  H    0.148585
    52  H    0.226175
    53  H    0.386822
    54  H    0.211223
    55  H    0.209470
    56  H    0.176309
    57  H    0.395431
    58  H    0.165286
    59  H    0.199614
    60  H    0.184928
    61  H    0.382643
    62  H    0.218604
    63  H    0.177199
    64  H    0.201396
 Sum of Mulliken atomic charges =   0.00000

 Dipole moment (field-independent basis, Debye):
    X=             -2.7953    Y=             -4.8379    Z=              6.0058  Tot=              8.2029
 Quadrupole moment (field-independent basis, Debye-Ang):
   XX=           -194.9483   YY=           -156.6826   ZZ=           -172.8336
   XY=             15.4209   XZ=            -16.4643   YZ=              8.9622

 Normal termination of Gaussian 09 at Thu Dec  5 20:15:45 2019.
