 Gaussian 09, Revision A.02,
 Gaussian 09:  EM64L-G09RevA.02 11-Jun-2009

 ---------------------------------
 #SP HF/6-31G* Geom=(ModRedundant)
 ---------------------------------

 ------------
 paramfit run
 ------------
 Symbolic Z-matrix:
 Charge =  0 Multiplicity = 1

                         Standard orientation:
 ---------------------------------------------------------------------
 Center     Atomic      Atomic             Coordinates (Angstroms)
 Number     Number       Type             X           Y           Z
 ---------------------------------------------------------------------
      1          6    20001001       -3.636260    2.913225   -0.463236
      2          7    20001014       -4.032397    1.601214    0.004683
      3          6    20001002       -4.264763    0.608701   -0.885839
      4          8    20001024       -3.945545    0.689150   -2.039691
      5          6    90000001       -4.841527   -0.699826   -0.316201
      6          6    90000002       -5.470563   -1.518910   -1.448127
      7          6    90000002       -3.729433   -1.500506    0.414388
      8          6    90000002       -2.496941   -1.964613   -0.382609
      9          6    90000002       -1.357288   -0.948078   -0.593523
     10          6    20001004       -0.794068   -0.381202    0.688551
     11          6    20001004        0.299207   -0.764524    1.327746
     12          6    90000002        1.254703   -1.865286    0.933913
     13          6    90000002        2.561925   -1.369322    0.289897
     14          6    90000002        3.381026   -0.472214    1.227545
     15          6    90000002        4.801616   -0.048267    0.772750
     16          6    90000002        5.657163    0.140111    2.036080
     17          7    20001014        5.366326   -1.116397   -0.040721
     18          6    20001002        6.552170   -0.961013   -0.698509
     19          6    20001001        6.817518   -1.979328   -1.783604
     20          8    20001024        7.330215   -0.085149   -0.440338
     21          6    20001002        4.679265    1.216872   -0.106555
     22          8    20001024        4.419360    1.119432   -1.275694
     23          7    20001014        4.772880    2.414717    0.510198
     24          6    20001001        4.717996    3.639156   -0.261774
     25          7    20001014       -5.837518   -0.410412    0.725755
     26          6    20001002       -6.975702    0.307891    0.506097
     27          6    20001001       -8.027121    0.193996    1.590378
     28          8    20001024       -7.131821    0.990408   -0.466496
     29          1    20001035       -4.426335    3.395827   -1.026997
     30          1    20001035       -2.765768    2.827233   -1.096933
     31          1    20001035       -3.386014    3.525045    0.394323
     32          1    20001029       -4.530710    1.554194    0.862447
     33          1    20001034       -4.754263   -1.719631   -2.230150
     34          1    20001034       -5.836289   -2.461451   -1.051772
     35          1    20001034       -6.295415   -0.979030   -1.889799
     36          1    20001034       -4.216437   -2.393735    0.799340
     37          1    20001034       -3.408702   -0.931499    1.281362
     38          1    20001034       -2.082703   -2.811042    0.157376
     39          1    20001034       -2.803461   -2.346106   -1.351052
     40          1    20001034       -1.697079   -0.134367   -1.221041
     41          1    20001034       -0.577978   -1.452639   -1.153815
     42          1    20001033       -1.357617    0.431713    1.117147
     43          1    20001033        0.551219   -0.236367    2.234003
     44          1    20001034        0.775704   -2.550135    0.244704
     45          1    20001034        1.495892   -2.448236    1.821939
     46          1    20001034        3.135554   -2.242529   -0.008156
     47          1    20001034        2.331079   -0.838489   -0.624300
     48          1    20001034        3.498761   -0.967179    2.189150
     49          1    20001034        2.821371    0.437032    1.413038
     50          1    20001034        5.767540   -0.819956    2.526660
     51          1    20001034        5.176156    0.811253    2.740056
     52          1    20001034        6.642476    0.512278    1.798618
     53          1    20001029        4.702557   -1.688627   -0.510482
     54          1    20001034        7.878319   -2.019139   -1.978996
     55          1    20001034        6.308384   -1.661267   -2.688449
     56          1    20001034        6.455378   -2.965806   -1.515091
     57          1    20001029        5.216762    2.456351    1.397071
     58          1    20001035        4.687601    4.477465    0.421773
     59          1    20001035        3.825154    3.647521   -0.869549
     60          1    20001035        5.578430    3.742263   -0.915053
     61          1    20001029       -5.857663   -1.048807    1.489688
     62          1    20001034       -8.679078    1.053643    1.536219
     63          1    20001034       -7.590326    0.128240    2.580548
     64          1    20001034       -8.618750   -0.699789    1.420304
 ---------------------------------------------------------------------

 SCF Done:  E(RHF) =  -1295.61599178     A.U. after   14 cycles

 The electronic state is 1-A.
 Alpha  occ. eigenvalues --  -20.53647 -20.51903 -20.51828 -20.51583 -15.59612
 Alpha  occ. eigenvalues --  -15.57873 -15.57505 -15.57197 -11.35967 -11.34080
 Alpha  occ. eigenvalues --  -11.33843 -11.33619 -11.29036 -11.28506 -11.24999
 Alpha  occ. eigenvalues --  -11.24826 -11.24359 -11.24038 -11.23408 -11.22961
 Alpha  occ. eigenvalues --  -11.22864 -11.22759 -11.22395 -11.22311 -11.22109
 Alpha  occ. eigenvalues --  -11.21831 -11.21661 -11.20866  -1.40583  -1.39256
 Alpha  occ. eigenvalues --   -1.38686  -1.37986  -1.25433  -1.23481  -1.22589
 Alpha  occ. eigenvalues --   -1.22052  -1.10865  -1.09300  -1.07201  -1.04372
 Alpha  occ. eigenvalues --   -1.01325  -0.99311  -0.98760  -0.95476  -0.95180
 Alpha  occ. eigenvalues --   -0.94622  -0.92293  -0.87430  -0.85824  -0.82908
 Alpha  occ. eigenvalues --   -0.81555  -0.79462  -0.78811  -0.77157  -0.76712
 Alpha  occ. eigenvalues --   -0.71960  -0.71361  -0.71145  -0.68966  -0.68044
 Alpha  occ. eigenvalues --   -0.66743  -0.65847  -0.64350  -0.64033  -0.63678
 Alpha  occ. eigenvalues --   -0.62569  -0.62375  -0.62183  -0.61271  -0.61039
 Alpha  occ. eigenvalues --   -0.60880  -0.59891  -0.59245  -0.58701  -0.58402
 Alpha  occ. eigenvalues --   -0.58279  -0.57902  -0.56642  -0.56520  -0.56007
 Alpha  occ. eigenvalues --   -0.55572  -0.54946  -0.54863  -0.54486  -0.54031
 Alpha  occ. eigenvalues --   -0.53202  -0.52789  -0.52564  -0.51910  -0.51775
 Alpha  occ. eigenvalues --   -0.51031  -0.50298  -0.49713  -0.49273  -0.48761
 Alpha  occ. eigenvalues --   -0.48491  -0.46968  -0.46502  -0.44685  -0.42868
 Alpha  occ. eigenvalues --   -0.41940  -0.41542  -0.40937  -0.39279  -0.38794
 Alpha  occ. eigenvalues --   -0.38288  -0.38110  -0.34618
 Alpha virt. eigenvalues --    0.17315   0.18801   0.19952   0.20045   0.20245
 Alpha virt. eigenvalues --    0.21604   0.22499   0.23157   0.23253   0.24070
 Alpha virt. eigenvalues --    0.25281   0.25473   0.26741   0.27106   0.27744

 Mulliken atomic charges:
              1
     1  C   -0.280118
     2  N   -0.783515
     3  C    0.821657
     4  O   -0.627841
     5  C    0.102456
     6  C   -0.472779
     7  C   -0.334253
     8  C   -0.312060
     9  C   -0.373221
    10  C   -0.176421
    11  C   -0.178194
    12  C   -0.347895
    13  C   -0.333558
    14  C   -0.331214
    15  C    0.113958
    16  C   -0.516019
    17  N   -0.805343
    18  C    0.770485
    19  C   -0.596852
    20  O   -0.615005
    21  C    0.805400
    22  O   -0.633037
    23  N   -0.803754
    24  C   -0.274941
    25  N   -0.843047
    26  C    0.744575
    27  C   -0.588685
    28  O   -0.591554
    29  H    0.186918
    30  H    0.199633
    31  H    0.162351
    32  H    0.391172
    33  H    0.198754
    34  H    0.143918
    35  H    0.212746
    36  H    0.161346
    37  H    0.182213
    38  H    0.163826
    39  H    0.179791
    40  H    0.215473
    41  H    0.172572
    42  H    0.181917
    43  H    0.171066
    44  H    0.176130
    45  H    0.164623
    46  H    0.144634
    47  H    0.204980
    48  H    0.172845
    49  H    0.192653
    50  H    0.184152
    51  H    0.148549
    52  H    0.225917
    53  H    0.402904
    54  H    0.210852
    55  H    0.209684
    56  H    0.175520
    57  H    0.395024
    58  H    0.163758
    59  H    0.199878
    60  H    0.185290
    61  H    0.382516
    62  H    0.218728
    63  H    0.177155
    64  H    0.201284
 Sum of Mulliken atomic charges =   0.00000

 Dipole moment (field-independent basis, Debye):
    X=             -2.7593    Y=             -2.8709    Z=              7.7080  Tot=              8.6757
 Quadrupole moment (field-independent basis, Debye-Ang):
   XX=           -192.4252   YY=           -154.2637   ZZ=           -174.5461
   XY=              8.6649   XZ=            -20.9455   YZ=             11.5345

 Normal termination of Gaussian 09 at Thu Dec  5 19:30:03 2019.
