 Gaussian 09, Revision A.02,
 Gaussian 09:  EM64L-G09RevA.02 11-Jun-2009

 ---------------------------------
 #SP HF/6-31G* Geom=(ModRedundant)
 ---------------------------------

 ------------
 paramfit run
 ------------
 Symbolic Z-matrix:
 Charge =  0 Multiplicity = 1

                         Standard orientation:
 ---------------------------------------------------------------------
 Center     Atomic      Atomic             Coordinates (Angstroms)
 Number     Number       Type             X           Y           Z
 ---------------------------------------------------------------------
      1          6    20001001       -4.002049   -2.296433    2.017841
      2          7    20001014       -4.299314   -1.455310    0.877056
      3          6    20001002       -4.553110   -0.138066    1.057514
      4          8    20001024       -4.327903    0.426748    2.091928
      5          6    90000001       -5.022587    0.643932   -0.182429
      6          6    90000002       -5.698137    1.946792    0.258058
      7          6    90000002       -3.821349    0.918072   -1.127669
      8          6    90000002       -2.633676    1.746425   -0.605270
      9          6    90000002       -1.562325    1.014411    0.227197
     10          6    20001004       -0.928985   -0.159655   -0.481834
     11          6    20001004        0.227001   -0.184963   -1.125118
     12          6    90000002        1.199578    0.954949   -1.310717
     13          6    90000002        2.428701    0.896153   -0.385857
     14          6    90000002        3.274927   -0.365154   -0.604758
     15          6    90000002        4.634903   -0.466808    0.133331
     16          6    90000002        4.347491   -0.902780    1.579282
     17          7    20001014        5.446328   -1.480418   -0.526756
     18          6    20001002        6.751026   -1.685302   -0.182017
     19          6    20001001        7.558332   -2.478081   -1.184295
     20          8    20001024        7.227965   -1.270901    0.837759
     21          6    20001002        5.363067    0.891020    0.011648
     22          8    20001024        6.004789    1.148557   -0.971102
     23          7    20001014        5.162114    1.795117    0.994605
     24          6    20001001        5.854002    3.067440    0.968325
     25          7    20001014       -5.947688   -0.171428   -0.982933
     26          6    20001002       -7.131675   -0.656169   -0.510840
     27          6    20001001       -8.089909   -1.157234   -1.571425
     28          8    20001024       -7.393975   -0.696008    0.657814
     29          1    20001035       -4.854882   -2.394542    2.679657
     30          1    20001035       -3.179946   -1.875074    2.577597
     31          1    20001035       -3.715236   -3.276899    1.658987
     32          1    20001029       -4.727275   -1.886711    0.091545
     33          1    20001034       -5.035685    2.544840    0.865041
     34          1    20001034       -5.987863    2.517862   -0.618968
     35          1    20001034       -6.578864    1.733840    0.846190
     36          1    20001034       -4.235038    1.453718   -1.979235
     37          1    20001034       -3.461615   -0.031483   -1.511357
     38          1    20001034       -2.140018    2.160927   -1.479403
     39          1    20001034       -2.995825    2.594555   -0.033521
     40          1    20001034       -1.987062    0.675413    1.163168
     41          1    20001034       -0.805854    1.745725    0.489427
     42          1    20001033       -1.495106   -1.076384   -0.446797
     43          1    20001033        0.523229   -1.122026   -1.570003
     44          1    20001034        0.701327    1.903743   -1.152597
     45          1    20001034        1.535438    0.957962   -2.346952
     46          1    20001034        3.017737    1.791979   -0.561662
     47          1    20001034        2.103555    0.951116    0.644720
     48          1    20001034        3.489404   -0.476431   -1.665490
     49          1    20001034        2.689447   -1.229535   -0.314225
     50          1    20001034        3.932984   -1.904042    1.563849
     51          1    20001034        3.613587   -0.254526    2.046757
     52          1    20001034        5.246536   -0.919599    2.176924
     53          1    20001029        5.242992   -1.626758   -1.489019
     54          1    20001034        8.418951   -2.901376   -0.689101
     55          1    20001034        7.901354   -1.803643   -1.963137
     56          1    20001034        6.974547   -3.266811   -1.646337
     57          1    20001029        4.839707    1.471461    1.875860
     58          1    20001035        5.467912    3.687223    1.766902
     59          1    20001035        5.676894    3.559558    0.023296
     60          1    20001035        6.924825    2.946254    1.096400
     61          1    20001029       -5.879081   -0.054943   -1.969478
     62          1    20001034       -8.783478   -1.849295   -1.116468
     63          1    20001034       -7.575482   -1.642433   -2.393311
     64          1    20001034       -8.650563   -0.317853   -1.970060
 ---------------------------------------------------------------------

 SCF Done:  E(RHF) =  -1295.61959546     A.U. after   14 cycles

 The electronic state is 1-A.
 Alpha  occ. eigenvalues --  -20.53738 -20.52085 -20.51991 -20.51703 -15.59704
 Alpha  occ. eigenvalues --  -15.57847 -15.57659 -15.57650 -11.36055 -11.34323
 Alpha  occ. eigenvalues --  -11.33997 -11.33691 -11.29146 -11.28535 -11.25109
 Alpha  occ. eigenvalues --  -11.25015 -11.24426 -11.24129 -11.23470 -11.22860
 Alpha  occ. eigenvalues --  -11.22690 -11.22629 -11.22569 -11.22352 -11.22152
 Alpha  occ. eigenvalues --  -11.21830 -11.21624 -11.20974  -1.40678  -1.39413
 Alpha  occ. eigenvalues --   -1.38846  -1.38138  -1.25535  -1.23602  -1.22667
 Alpha  occ. eigenvalues --   -1.22203  -1.10961  -1.09466  -1.07280  -1.04198
 Alpha  occ. eigenvalues --   -1.01270  -0.99449  -0.98579  -0.95639  -0.95247
 Alpha  occ. eigenvalues --   -0.94626  -0.92457  -0.87621  -0.85965  -0.83018
 Alpha  occ. eigenvalues --   -0.81750  -0.79266  -0.78209  -0.77304  -0.76766
 Alpha  occ. eigenvalues --   -0.71741  -0.71431  -0.71264  -0.69023  -0.68299
 Alpha  occ. eigenvalues --   -0.66602  -0.65941  -0.64887  -0.64169  -0.63961
 Alpha  occ. eigenvalues --   -0.63226  -0.62649  -0.62303  -0.61488  -0.61174
 Alpha  occ. eigenvalues --   -0.60708  -0.60014  -0.59453  -0.58772  -0.58707
 Alpha  occ. eigenvalues --   -0.58323  -0.57641  -0.57075  -0.56344  -0.55758
 Alpha  occ. eigenvalues --   -0.55491  -0.54964  -0.54757  -0.54594  -0.53752
 Alpha  occ. eigenvalues --   -0.53365  -0.52921  -0.52582  -0.52171  -0.51338
 Alpha  occ. eigenvalues --   -0.51117  -0.50562  -0.49919  -0.49316  -0.48591
 Alpha  occ. eigenvalues --   -0.48085  -0.47109  -0.46839  -0.44739  -0.42971
 Alpha  occ. eigenvalues --   -0.42059  -0.41594  -0.41051  -0.39404  -0.38895
 Alpha  occ. eigenvalues --   -0.38450  -0.38392  -0.34657
 Alpha virt. eigenvalues --    0.17210   0.18714   0.19886   0.19928   0.20170
 Alpha virt. eigenvalues --    0.21617   0.21964   0.22937   0.23136   0.23786
 Alpha virt. eigenvalues --    0.25132   0.25385   0.25721   0.26798   0.27499

 Mulliken atomic charges:
              1
     1  C   -0.279640
     2  N   -0.783373
     3  C    0.821961
     4  O   -0.629012
     5  C    0.102316
     6  C   -0.472715
     7  C   -0.334535
     8  C   -0.311631
     9  C   -0.372656
    10  C   -0.180899
    11  C   -0.177664
    12  C   -0.353009
    13  C   -0.316836
    14  C   -0.325072
    15  C    0.111231
    16  C   -0.512161
    17  N   -0.790209
    18  C    0.767082
    19  C   -0.594325
    20  O   -0.613150
    21  C    0.795600
    22  O   -0.636080
    23  N   -0.796136
    24  C   -0.274935
    25  N   -0.843094
    26  C    0.744505
    27  C   -0.588722
    28  O   -0.591821
    29  H    0.187273
    30  H    0.197371
    31  H    0.163034
    32  H    0.391681
    33  H    0.198176
    34  H    0.144524
    35  H    0.212717
    36  H    0.162068
    37  H    0.182691
    38  H    0.165617
    39  H    0.179223
    40  H    0.212649
    41  H    0.170700
    42  H    0.181209
    43  H    0.170897
    44  H    0.176119
    45  H    0.168858
    46  H    0.189941
    47  H    0.165841
    48  H    0.162705
    49  H    0.186440
    50  H    0.184454
    51  H    0.152200
    52  H    0.224323
    53  H    0.382879
    54  H    0.211493
    55  H    0.209162
    56  H    0.176809
    57  H    0.396179
    58  H    0.165574
    59  H    0.195984
    60  H    0.185583
    61  H    0.382871
    62  H    0.218804
    63  H    0.177426
    64  H    0.201507
 Sum of Mulliken atomic charges =   0.00000

 Dipole moment (field-independent basis, Debye):
    X=             -3.3513    Y=             -1.6861    Z=             -5.5835  Tot=              6.7268
 Quadrupole moment (field-independent basis, Debye-Ang):
   XX=           -207.5271   YY=           -158.5562   ZZ=           -171.9223
   XY=              3.0224   XZ=             32.1056   YZ=              8.2629

 Normal termination of Gaussian 09 at Thu Dec  5 19:30:22 2019.
