 Gaussian 09, Revision A.02,
 Gaussian 09:  EM64L-G09RevA.02 11-Jun-2009

 ---------------------------------
 #SP HF/6-31G* Geom=(ModRedundant)
 ---------------------------------

 ------------
 paramfit run
 ------------
 Symbolic Z-matrix:
 Charge =  0 Multiplicity = 1

                         Standard orientation:
 ---------------------------------------------------------------------
 Center     Atomic      Atomic             Coordinates (Angstroms)
 Number     Number       Type             X           Y           Z
 ---------------------------------------------------------------------
      1          6    20001001        3.949868    2.952518    0.670989
      2          7    20001014        4.268496    1.668622    0.081638
      3          6    20001002        4.571797    0.616964    0.877962
      4          8    20001024        4.375791    0.626172    2.061703
      5          6    90000001        5.059549   -0.659265    0.168931
      6          6    90000002        5.785885   -1.559053    1.174246
      7          6    90000002        3.861551   -1.395283   -0.490371
      8          6    90000002        2.709263   -1.893670    0.400403
      9          6    90000002        1.618596   -0.877679    0.793908
     10          6    20001004        0.936984   -0.220620   -0.383358
     11          6    20001004       -0.224316   -0.546440   -0.927399
     12          6    90000002       -1.155976   -1.657484   -0.506276
     13          6    90000002       -2.378909   -1.186927    0.301546
     14          6    90000002       -3.272489   -0.219398   -0.486058
     15          6    90000002       -4.629263    0.193210    0.141288
     16          6    90000002       -4.464471    0.158374    1.669385
     17          7    20001014       -4.942187    1.551298   -0.282038
     18          6    20001002       -6.147377    2.126497    0.000311
     19          6    20001001       -6.470527    3.360406   -0.810769
     20          8    20001024       -6.898518    1.691571    0.828421
     21          6    20001002       -5.728356   -0.748328   -0.401140
     22          8    20001024       -6.242947   -0.529577   -1.464752
     23          7    20001014       -6.002226   -1.861430    0.312991
     24          6    20001001       -7.055857   -2.760073   -0.111869
     25          7    20001014        5.947677   -0.315955   -0.951246
     26          6    20001002        7.116901    0.370905   -0.806990
     27          6    20001001        8.047542    0.313817   -2.000627
     28          8    20001024        7.387006    0.986215    0.185268
     29          1    20001035        4.803860    3.386450    1.178286
     30          1    20001035        3.148295    2.837148    1.385757
     31          1    20001035        3.624459    3.622420   -0.114945
     32          1    20001029        4.674010    1.670983   -0.824915
     33          1    20001034        5.150702   -1.800686    2.012750
     34          1    20001034        6.089224   -2.478566    0.682597
     35          1    20001034        6.662951   -1.060464    1.560368
     36          1    20001034        4.287675   -2.267989   -0.980292
     37          1    20001034        3.464203   -0.766524   -1.280977
     38          1    20001034        2.224060   -2.697286   -0.145854
     39          1    20001034        3.106831   -2.341771    1.305123
     40          1    20001034        2.038191   -0.111415    1.432770
     41          1    20001034        0.891551   -1.407127    1.399651
     42          1    20001033        1.469428    0.610824   -0.816160
     43          1    20001033       -0.558240    0.043193   -1.766797
     44          1    20001034       -0.622061   -2.392363    0.083939
     45          1    20001034       -1.499867   -2.177818   -1.399352
     46          1    20001034       -2.936156   -2.069859    0.602016
     47          1    20001034       -2.043648   -0.720162    1.218367
     48          1    20001034       -3.499465   -0.648815   -1.459515
     49          1    20001034       -2.716718    0.692327   -0.671061
     50          1    20001034       -3.750105    0.920305    1.958739
     51          1    20001034       -4.072053   -0.797458    2.000709
     52          1    20001034       -5.396368    0.360709    2.175711
     53          1    20001029       -4.542604    1.828452   -1.149351
     54          1    20001034       -7.216935    3.940320   -0.289582
     55          1    20001034       -6.877576    3.048401   -1.767894
     56          1    20001034       -5.592393    3.970086   -0.993945
     57          1    20001029       -5.745952   -1.882930    1.271725
     58          1    20001035       -7.033707   -3.640306    0.517115
     59          1    20001035       -6.891580   -3.055749   -1.137644
     60          1    20001035       -8.034117   -2.295531   -0.041422
     61          1    20001029        5.875406   -0.903276   -1.752107
     62          1    20001034        8.718964    1.159137   -1.960624
     63          1    20001034        7.509068    0.318859   -2.941675
     64          1    20001034        8.635309   -0.597139   -1.950725
 ---------------------------------------------------------------------

 SCF Done:  E(RHF) =  -1295.61568982     A.U. after   14 cycles

 The electronic state is 1-A.
 Alpha  occ. eigenvalues --  -20.53749 -20.52063 -20.52004 -20.51670 -15.59720
 Alpha  occ. eigenvalues --  -15.58073 -15.57673 -15.57634 -11.36066 -11.34271
 Alpha  occ. eigenvalues --  -11.34011 -11.33766 -11.29167 -11.28486 -11.25174
 Alpha  occ. eigenvalues --  -11.25023 -11.24434 -11.24161 -11.23343 -11.22949
 Alpha  occ. eigenvalues --  -11.22908 -11.22792 -11.22522 -11.22434 -11.22233
 Alpha  occ. eigenvalues --  -11.21879 -11.21402 -11.20994  -1.40690  -1.39403
 Alpha  occ. eigenvalues --   -1.38859  -1.38131  -1.25551  -1.23588  -1.22748
 Alpha  occ. eigenvalues --   -1.22217  -1.11078  -1.09576  -1.07330  -1.04166
 Alpha  occ. eigenvalues --   -1.01250  -0.99466  -0.98493  -0.95651  -0.95307
 Alpha  occ. eigenvalues --   -0.94517  -0.92752  -0.88058  -0.86213  -0.82696
 Alpha  occ. eigenvalues --   -0.81352  -0.79300  -0.78346  -0.77317  -0.76942
 Alpha  occ. eigenvalues --   -0.71838  -0.71535  -0.71287  -0.69034  -0.68424
 Alpha  occ. eigenvalues --   -0.66593  -0.65959  -0.64766  -0.64225  -0.64007
 Alpha  occ. eigenvalues --   -0.63001  -0.62600  -0.62019  -0.61470  -0.61248
 Alpha  occ. eigenvalues --   -0.61166  -0.60068  -0.59703  -0.58982  -0.58557
 Alpha  occ. eigenvalues --   -0.58303  -0.58059  -0.56988  -0.56324  -0.56116
 Alpha  occ. eigenvalues --   -0.55780  -0.55032  -0.54696  -0.54488  -0.53897
 Alpha  occ. eigenvalues --   -0.53025  -0.52911  -0.52381  -0.51982  -0.51320
 Alpha  occ. eigenvalues --   -0.51129  -0.50460  -0.49938  -0.49255  -0.48761
 Alpha  occ. eigenvalues --   -0.48064  -0.47163  -0.47044  -0.44768  -0.42985
 Alpha  occ. eigenvalues --   -0.42075  -0.41515  -0.41014  -0.39418  -0.38902
 Alpha  occ. eigenvalues --   -0.38499  -0.38461  -0.34756
 Alpha virt. eigenvalues --    0.17084   0.18702   0.19734   0.19871   0.20151
 Alpha virt. eigenvalues --    0.21689   0.22314   0.22847   0.23054   0.23831
 Alpha virt. eigenvalues --    0.25127   0.25288   0.26300   0.26741   0.27612

 Mulliken atomic charges:
              1
     1  C   -0.279740
     2  N   -0.783480
     3  C    0.821843
     4  O   -0.628792
     5  C    0.102360
     6  C   -0.472742
     7  C   -0.334535
     8  C   -0.311703
     9  C   -0.372658
    10  C   -0.179912
    11  C   -0.177564
    12  C   -0.350554
    13  C   -0.318378
    14  C   -0.356062
    15  C    0.135650
    16  C   -0.522108
    17  N   -0.794296
    18  C    0.766794
    19  C   -0.594198
    20  O   -0.612805
    21  C    0.802591
    22  O   -0.637552
    23  N   -0.802994
    24  C   -0.275085
    25  N   -0.843099
    26  C    0.744481
    27  C   -0.588737
    28  O   -0.591759
    29  H    0.187390
    30  H    0.197651
    31  H    0.162880
    32  H    0.391694
    33  H    0.198169
    34  H    0.144446
    35  H    0.212852
    36  H    0.162084
    37  H    0.182778
    38  H    0.165162
    39  H    0.179363
    40  H    0.213389
    41  H    0.170449
    42  H    0.181615
    43  H    0.171712
    44  H    0.175165
    45  H    0.169167
    46  H    0.165196
    47  H    0.178537
    48  H    0.189962
    49  H    0.182159
    50  H    0.186309
    51  H    0.155491
    52  H    0.225042
    53  H    0.383249
    54  H    0.211407
    55  H    0.208975
    56  H    0.177045
    57  H    0.396566
    58  H    0.164702
    59  H    0.197762
    60  H    0.185931
    61  H    0.382887
    62  H    0.218863
    63  H    0.177488
    64  H    0.201494
 Sum of Mulliken atomic charges =   0.00000

 Dipole moment (field-independent basis, Debye):
    X=              3.2678    Y=             -2.3904    Z=             -5.0412  Tot=              6.4658
 Quadrupole moment (field-independent basis, Debye-Ang):
   XX=           -207.9176   YY=           -155.2650   ZZ=           -176.1565
   XY=             -4.2009   XZ=            -36.9569   YZ=            -11.9643

 Normal termination of Gaussian 09 at Thu Dec  5 20:02:42 2019.
