 Gaussian 09, Revision A.02,
 Gaussian 09:  EM64L-G09RevA.02 11-Jun-2009

 ---------------------------------
 #SP HF/6-31G* Geom=(ModRedundant)
 ---------------------------------

 ------------
 paramfit run
 ------------
 Symbolic Z-matrix:
 Charge =  0 Multiplicity = 1

                         Standard orientation:
 ---------------------------------------------------------------------
 Center     Atomic      Atomic             Coordinates (Angstroms)
 Number     Number       Type             X           Y           Z
 ---------------------------------------------------------------------
      1          6    20001001       -3.722971    2.815839    1.011830
      2          7    20001014       -4.107104    1.430493    0.837175
      3          6    20001002       -4.464274    0.978309   -0.387597
      4          8    20001024       -4.268303    1.607579   -1.390273
      5          6    90000001       -5.016888   -0.456903   -0.452194
      6          6    90000002       -5.788763   -0.651077   -1.761525
      7          6    90000002       -3.858202   -1.482136   -0.318227
      8          6    90000002       -2.733267   -1.479499   -1.369013
      9          6    90000002       -1.591859   -0.458436   -1.192219
     10          6    20001004       -0.877099   -0.559060    0.134910
     11          6    20001004        0.266016   -1.174534    0.390326
     12          6    90000002        1.139195   -1.930265   -0.582393
     13          6    90000002        2.384547   -1.155606   -1.049906
     14          6    90000002        3.326884   -0.795555    0.106502
     15          6    90000002        4.702956   -0.171758   -0.242705
     16          6    90000002        5.127126   -0.720258   -1.614814
     17          7    20001014        4.549352    1.274341   -0.324754
     18          6    20001002        5.626771    2.098521   -0.476248
     19          6    20001001        5.364365    3.554425   -0.165939
     20          8    20001024        6.703585    1.704555   -0.828961
     21          6    20001002        5.691540   -0.489410    0.902076
     22          8    20001024        5.718330    0.197504    1.887652
     23          7    20001014        6.433779   -1.612094    0.789638
     24          6    20001001        7.415908   -1.941917    1.801985
     25          7    20001014       -5.885942   -0.724224    0.703104
     26          6    20001002       -7.018312   -0.015918    0.978261
     27          6    20001001       -7.950406   -0.659023    1.984112
     28          8    20001024       -7.256613    1.044149    0.472683
     29          1    20001035       -4.553615    3.489816    0.836515
     30          1    20001035       -2.928545    3.063880    0.323291
     31          1    20001035       -3.363364    2.949819    2.024295
     32          1    20001029       -4.511769    0.967628    1.617103
     33          1    20001034       -5.167028   -0.436710   -2.617343
     34          1    20001034       -6.138902   -1.677005   -1.825648
     35          1    20001034       -6.639099    0.014079   -1.799251
     36          1    20001034       -4.328555   -2.462235   -0.355553
     37          1    20001034       -3.428867   -1.388553    0.674342
     38          1    20001034       -2.289934   -2.470756   -1.347036
     39          1    20001034       -3.153552   -1.359593   -2.362168
     40          1    20001034       -1.971612    0.547675   -1.314256
     41          1    20001034       -0.893142   -0.615284   -2.006483
     42          1    20001033       -1.365973   -0.063289    0.957908
     43          1    20001033        0.630008   -1.137245    1.405156
     44          1    20001034        0.568056   -2.214288   -1.457948
     45          1    20001034        1.456050   -2.860450   -0.112337
     46          1    20001034        2.895570   -1.766416   -1.788920
     47          1    20001034        2.073550   -0.258451   -1.568774
     48          1    20001034        3.531673   -1.686571    0.696153
     49          1    20001034        2.818792   -0.099012    0.763023
     50          1    20001034        4.430234   -0.360449   -2.362783
     51          1    20001034        5.091675   -1.804603   -1.632693
     52          1    20001034        6.116952   -0.387208   -1.888787
     53          1    20001029        3.808936    1.654284    0.219434
     54          1    20001034        6.113829    4.160000   -0.652400
     55          1    20001034        5.442700    3.698899    0.907428
     56          1    20001034        4.375473    3.867582   -0.482812
     57          1    20001029        6.561378   -2.006031   -0.112494
     58          1    20001035        7.810479   -2.927475    1.592441
     59          1    20001035        6.948032   -1.949330    2.775465
     60          1    20001035        8.232122   -1.226901    1.819309
     61          1    20001029       -5.843814   -1.650169    1.066971
     62          1    20001034       -8.577460    0.106150    2.418033
     63          1    20001034       -7.412188   -1.178989    2.768654
     64          1    20001034       -8.584270   -1.377140    1.473891
 ---------------------------------------------------------------------

 SCF Done:  E(RHF) =  -1295.61589242     A.U. after   14 cycles

 The electronic state is 1-A.
 Alpha  occ. eigenvalues --  -20.53732 -20.51993 -20.51974 -20.51731 -15.59703
 Alpha  occ. eigenvalues --  -15.57999 -15.57658 -15.57475 -11.36048 -11.34161
 Alpha  occ. eigenvalues --  -11.33999 -11.33785 -11.29153 -11.28540 -11.25167
 Alpha  occ. eigenvalues --  -11.25015 -11.24414 -11.24146 -11.23475 -11.22896
 Alpha  occ. eigenvalues --  -11.22844 -11.22783 -11.22392 -11.22392 -11.22196
 Alpha  occ. eigenvalues --  -11.21862 -11.21650 -11.20981  -1.40673  -1.39360
 Alpha  occ. eigenvalues --   -1.38847  -1.38092  -1.25534  -1.23514  -1.22715
 Alpha  occ. eigenvalues --   -1.22202  -1.11041  -1.09540  -1.07328  -1.04187
 Alpha  occ. eigenvalues --   -1.01224  -0.99410  -0.98520  -0.95640  -0.95288
 Alpha  occ. eigenvalues --   -0.94603  -0.92787  -0.88061  -0.86197  -0.82586
 Alpha  occ. eigenvalues --   -0.80902  -0.79417  -0.78790  -0.77303  -0.76834
 Alpha  occ. eigenvalues --   -0.72022  -0.71320  -0.71009  -0.69029  -0.68302
 Alpha  occ. eigenvalues --   -0.66647  -0.65950  -0.65305  -0.64187  -0.63877
 Alpha  occ. eigenvalues --   -0.62892  -0.62550  -0.61982  -0.61515  -0.61161
 Alpha  occ. eigenvalues --   -0.60984  -0.60046  -0.59322  -0.59126  -0.58397
 Alpha  occ. eigenvalues --   -0.58318  -0.58129  -0.56875  -0.56580  -0.55981
 Alpha  occ. eigenvalues --   -0.55456  -0.55196  -0.54666  -0.54487  -0.53601
 Alpha  occ. eigenvalues --   -0.53452  -0.52952  -0.52749  -0.52284  -0.51192
 Alpha  occ. eigenvalues --   -0.50979  -0.50406  -0.49819  -0.49200  -0.48728
 Alpha  occ. eigenvalues --   -0.48246  -0.47180  -0.47094  -0.44638  -0.42967
 Alpha  occ. eigenvalues --   -0.42061  -0.41658  -0.40944  -0.39404  -0.38906
 Alpha  occ. eigenvalues --   -0.38449  -0.38327  -0.34733
 Alpha virt. eigenvalues --    0.17245   0.18722   0.19888   0.20093   0.20142
 Alpha virt. eigenvalues --    0.21214   0.21989   0.23082   0.23390   0.23841
 Alpha virt. eigenvalues --    0.25148   0.25226   0.26292   0.26836   0.27366

 Mulliken atomic charges:
              1
     1  C   -0.279705
     2  N   -0.783399
     3  C    0.821845
     4  O   -0.628943
     5  C    0.102381
     6  C   -0.472740
     7  C   -0.334600
     8  C   -0.311498
     9  C   -0.372725
    10  C   -0.181246
    11  C   -0.180145
    12  C   -0.350840
    13  C   -0.309950
    14  C   -0.334699
    15  C    0.114345
    16  C   -0.527091
    17  N   -0.786357
    18  C    0.766462
    19  C   -0.594715
    20  O   -0.614464
    21  C    0.799987
    22  O   -0.632687
    23  N   -0.803250
    24  C   -0.274370
    25  N   -0.843055
    26  C    0.744516
    27  C   -0.588762
    28  O   -0.591794
    29  H    0.187423
    30  H    0.196835
    31  H    0.163459
    32  H    0.391897
    33  H    0.198183
    34  H    0.144382
    35  H    0.212847
    36  H    0.161919
    37  H    0.183056
    38  H    0.164817
    39  H    0.179416
    40  H    0.212949
    41  H    0.170800
    42  H    0.182094
    43  H    0.175914
    44  H    0.175630
    45  H    0.165337
    46  H    0.170319
    47  H    0.175004
    48  H    0.181531
    49  H    0.177394
    50  H    0.193337
    51  H    0.147955
    52  H    0.227384
    53  H    0.384814
    54  H    0.210999
    55  H    0.208617
    56  H    0.178589
    57  H    0.396021
    58  H    0.164347
    59  H    0.197791
    60  H    0.185658
    61  H    0.382881
    62  H    0.218908
    63  H    0.177603
    64  H    0.201392
 Sum of Mulliken atomic charges =   0.00000

 Dipole moment (field-independent basis, Debye):
    X=             -2.7446    Y=             -6.1532    Z=              2.7159  Tot=              7.2643
 Quadrupole moment (field-independent basis, Debye-Ang):
   XX=           -196.7661   YY=           -161.1579   ZZ=           -173.9987
   XY=             10.0041   XZ=            -25.6064   YZ=              5.8525

 Normal termination of Gaussian 09 at Thu Dec  5 19:32:51 2019.
