 Gaussian 09, Revision A.02,
 Gaussian 09:  EM64L-G09RevA.02 11-Jun-2009

 ---------------------------------
 #SP HF/6-31G* Geom=(ModRedundant)
 ---------------------------------

 ------------
 paramfit run
 ------------
 Symbolic Z-matrix:
 Charge =  0 Multiplicity = 1

                         Standard orientation:
 ---------------------------------------------------------------------
 Center     Atomic      Atomic             Coordinates (Angstroms)
 Number     Number       Type             X           Y           Z
 ---------------------------------------------------------------------
      1          6    20001001       -3.678551    2.939565   -0.149059
      2          7    20001014       -4.059187    1.581618    0.180092
      3          6    20001002       -4.279078    0.683731   -0.808623
      4          8    20001024       -3.960150    0.886750   -1.947400
      5          6    90000001       -4.840431   -0.683407   -0.378270
      6          6    90000002       -5.458898   -1.388576   -1.589912
      7          6    90000002       -3.719244   -1.542013    0.267746
      8          6    90000002       -2.480785   -1.906615   -0.570657
      9          6    90000002       -1.353294   -0.860259   -0.673330
     10          6    20001004       -0.797699   -0.422226    0.661480
     11          6    20001004        0.299713   -0.856519    1.259671
     12          6    90000002        1.268597   -1.899269    0.755995
     13          6    90000002        2.570159   -1.323923    0.169071
     14          6    90000002        3.377860   -0.518822    1.195884
     15          6    90000002        4.793531   -0.033306    0.789936
     16          6    90000002        5.566976    0.276174    2.082010
     17          7    20001014        5.463272   -1.107241    0.069074
     18          6    20001002        6.671729   -0.914949   -0.535667
     19          6    20001001        7.054814   -1.972548   -1.545389
     20          8    20001024        7.381776    0.020097   -0.289365
     21          6    20001002        4.644623    1.172037   -0.165940
     22          8    20001024        4.454472    0.995135   -1.339174
     23          7    20001014        4.634097    2.405212    0.384648
     24          6    20001001        4.549035    3.580015   -0.458446
     25          7    20001014       -5.840456   -0.515049    0.686171
     26          6    20001002       -6.987051    0.208529    0.539793
     27          6    20001001       -8.037684   -0.029266    1.604567
     28          8    20001024       -7.150767    0.985976   -0.357377
     29          1    20001035       -4.474023    3.468408   -0.661405
     30          1    20001035       -2.806705    2.929854   -0.786643
     31          1    20001035       -3.436191    3.462440    0.767575
     32          1    20001029       -4.557419    1.440309    1.027489
     33          1    20001034       -4.739767   -1.498900   -2.387164
     34          1    20001034       -5.813520   -2.371302   -1.293719
     35          1    20001034       -6.289907   -0.815792   -1.974970
     36          1    20001034       -4.195719   -2.475958    0.557468
     37          1    20001034       -3.405895   -1.061854    1.189452
     38          1    20001034       -2.056739   -2.799322   -0.120237
     39          1    20001034       -2.782115   -2.189624   -1.573892
     40          1    20001034       -1.702453    0.009835   -1.214058
     41          1    20001034       -0.567641   -1.294936   -1.281310
     42          1    20001033       -1.371229    0.335304    1.170720
     43          1    20001033        0.544815   -0.421863    2.216103
     44          1    20001034        0.798275   -2.514888   -0.001155
     45          1    20001034        1.516232   -2.567940    1.579494
     46          1    20001034        3.154413   -2.154784   -0.216535
     47          1    20001034        2.333509   -0.704259   -0.685823
     48          1    20001034        3.500947   -1.109054    2.101428
     49          1    20001034        2.807213    0.359679    1.473280
     50          1    20001034        5.707000   -0.647065    2.632106
     51          1    20001034        5.009954    0.953676    2.720836
     52          1    20001034        6.540065    0.695031    1.873693
     53          1    20001029        4.860698   -1.744157   -0.399918
     54          1    20001034        8.125126   -1.957309   -1.684175
     55          1    20001034        6.577489   -1.736360   -2.491697
     56          1    20001034        6.737387   -2.963416   -1.239115
     57          1    20001029        5.026178    2.522483    1.288988
     58          1    20001035        4.432449    4.450853    0.173194
     59          1    20001035        3.691404    3.500038   -1.110135
     60          1    20001035        5.435955    3.700342   -1.072161
     61          1    20001029       -5.853396   -1.229149    1.380030
     62          1    20001034       -8.699884    0.823568    1.638300
     63          1    20001034       -7.600730   -0.191778    2.583450
     64          1    20001034       -8.618433   -0.907663    1.341983
 ---------------------------------------------------------------------

 SCF Done:  E(RHF) =  -1295.61866774     A.U. after   14 cycles

 The electronic state is 1-A.
 Alpha  occ. eigenvalues --  -20.53649 -20.51931 -20.51835 -20.51599 -15.59612
 Alpha  occ. eigenvalues --  -15.57871 -15.57518 -15.57264 -11.35969 -11.34122
 Alpha  occ. eigenvalues --  -11.33849 -11.33637 -11.29033 -11.28532 -11.24982
 Alpha  occ. eigenvalues --  -11.24856 -11.24361 -11.24028 -11.23427 -11.22815
 Alpha  occ. eigenvalues --  -11.22758 -11.22738 -11.22422 -11.22295 -11.22091
 Alpha  occ. eigenvalues --  -11.21827 -11.21635 -11.20861  -1.40585  -1.39282
 Alpha  occ. eigenvalues --   -1.38693  -1.38012  -1.25434  -1.23481  -1.22589
 Alpha  occ. eigenvalues --   -1.22065  -1.10836  -1.09286  -1.07196  -1.04329
 Alpha  occ. eigenvalues --   -1.01299  -0.99311  -0.98751  -0.95494  -0.95162
 Alpha  occ. eigenvalues --   -0.94604  -0.92260  -0.87367  -0.85776  -0.82875
 Alpha  occ. eigenvalues --   -0.81462  -0.79487  -0.78819  -0.77168  -0.76792
 Alpha  occ. eigenvalues --   -0.71944  -0.71339  -0.71137  -0.68961  -0.68014
 Alpha  occ. eigenvalues --   -0.66738  -0.65850  -0.64376  -0.63981  -0.63722
 Alpha  occ. eigenvalues --   -0.62576  -0.62335  -0.62058  -0.61304  -0.61062
 Alpha  occ. eigenvalues --   -0.60897  -0.59895  -0.59260  -0.58715  -0.58375
 Alpha  occ. eigenvalues --   -0.58293  -0.57897  -0.56574  -0.56504  -0.56041
 Alpha  occ. eigenvalues --   -0.55606  -0.54894  -0.54857  -0.54514  -0.54018
 Alpha  occ. eigenvalues --   -0.53152  -0.52801  -0.52485  -0.52010  -0.51784
 Alpha  occ. eigenvalues --   -0.51033  -0.50288  -0.49722  -0.49266  -0.48714
 Alpha  occ. eigenvalues --   -0.48477  -0.46955  -0.46448  -0.44649  -0.42869
 Alpha  occ. eigenvalues --   -0.41941  -0.41519  -0.40968  -0.39283  -0.38799
 Alpha  occ. eigenvalues --   -0.38300  -0.38161  -0.34594
 Alpha virt. eigenvalues --    0.17309   0.18800   0.19901   0.20009   0.20241
 Alpha virt. eigenvalues --    0.21590   0.22417   0.23071   0.23256   0.23994
 Alpha virt. eigenvalues --    0.25344   0.25527   0.26698   0.27152   0.27757

 Mulliken atomic charges:
              1
     1  C   -0.279962
     2  N   -0.783502
     3  C    0.821710
     4  O   -0.627842
     5  C    0.102417
     6  C   -0.472794
     7  C   -0.334260
     8  C   -0.312064
     9  C   -0.373486
    10  C   -0.177064
    11  C   -0.178099
    12  C   -0.349605
    13  C   -0.323319
    14  C   -0.327358
    15  C    0.099924
    16  C   -0.513226
    17  N   -0.800275
    18  C    0.769347
    19  C   -0.596947
    20  O   -0.614747
    21  C    0.811649
    22  O   -0.634486
    23  N   -0.804211
    24  C   -0.275210
    25  N   -0.843062
    26  C    0.744568
    27  C   -0.588680
    28  O   -0.591613
    29  H    0.186972
    30  H    0.199209
    31  H    0.162228
    32  H    0.391209
    33  H    0.198872
    34  H    0.143965
    35  H    0.212679
    36  H    0.161352
    37  H    0.182134
    38  H    0.163971
    39  H    0.179890
    40  H    0.214951
    41  H    0.173719
    42  H    0.181467
    43  H    0.170550
    44  H    0.176331
    45  H    0.163376
    46  H    0.139432
    47  H    0.207365
    48  H    0.172688
    49  H    0.189864
    50  H    0.183959
    51  H    0.148353
    52  H    0.226539
    53  H    0.400860
    54  H    0.210961
    55  H    0.209572
    56  H    0.175748
    57  H    0.395030
    58  H    0.163959
    59  H    0.200131
    60  H    0.185154
    61  H    0.382543
    62  H    0.218690
    63  H    0.177152
    64  H    0.201321
 Sum of Mulliken atomic charges =   0.00000

 Dipole moment (field-independent basis, Debye):
    X=             -2.7849    Y=             -3.3812    Z=              7.3894  Tot=              8.5902
 Quadrupole moment (field-independent basis, Debye-Ang):
   XX=           -193.0670   YY=           -154.3819   ZZ=           -174.4004
   XY=             10.4011   XZ=            -20.5202   YZ=             11.4322

 Normal termination of Gaussian 09 at Thu Dec  5 19:25:02 2019.
