 Gaussian 09, Revision A.02,
 Gaussian 09:  EM64L-G09RevA.02 11-Jun-2009

 ---------------------------------
 #SP HF/6-31G* Geom=(ModRedundant)
 ---------------------------------

 ------------
 paramfit run
 ------------
 Symbolic Z-matrix:
 Charge =  0 Multiplicity = 1

                         Standard orientation:
 ---------------------------------------------------------------------
 Center     Atomic      Atomic             Coordinates (Angstroms)
 Number     Number       Type             X           Y           Z
 ---------------------------------------------------------------------
      1          6    20001001       -3.677325    2.700197    1.291849
      2          7    20001014       -4.075024    1.342970    0.980373
      3          6    20001002       -4.435862    1.018432   -0.283185
      4          8    20001024       -4.233034    1.742358   -1.218352
      5          6    90000001       -5.002597   -0.397690   -0.490053
      6          6    90000002       -5.775514   -0.452992   -1.811939
      7          6    90000002       -3.854191   -1.442588   -0.459144
      8          6    90000002       -2.728610   -1.346568   -1.504842
      9          6    90000002       -1.577276   -0.359512   -1.227738
     10          6    20001004       -0.864399   -0.598736    0.082550
     11          6    20001004        0.272410   -1.247856    0.275075
     12          6    90000002        1.138699   -1.911678   -0.768302
     13          6    90000002        2.391950   -1.106723   -1.156858
     14          6    90000002        3.337057   -0.872850    0.029308
     15          6    90000002        4.719455   -0.231064   -0.256583
     16          6    90000002        5.254270   -0.841699   -1.562166
     17          7    20001014        4.537757    1.203567   -0.430797
     18          6    20001002        5.603351    2.047860   -0.552176
     19          6    20001001        5.284678    3.510686   -0.343871
     20          8    20001024        6.711845    1.665288   -0.805204
     21          6    20001002        5.630322   -0.458114    0.971218
     22          8    20001024        5.569703    0.282092    1.915860
     23          7    20001014        6.405260   -1.564204    0.975021
     24          6    20001001        7.319516   -1.810815    2.071160
     25          7    20001014       -5.874994   -0.769999    0.633219
     26          6    20001002       -7.000482   -0.081402    0.977866
     27          6    20001001       -7.939535   -0.812120    1.915069
     28          8    20001024       -7.227965    1.026011    0.580338
     29          1    20001035       -4.501152    3.396463    1.184741
     30          1    20001035       -2.880044    3.007626    0.631129
     31          1    20001035       -3.317062    2.729222    2.312497
     32          1    20001029       -4.484748    0.808842    1.710523
     33          1    20001034       -5.151139   -0.160717   -2.642400
     34          1    20001034       -6.135738   -1.463934   -1.977687
     35          1    20001034       -6.619206    0.221005   -1.783013
     36          1    20001034       -4.334188   -2.409406   -0.593627
     37          1    20001034       -3.424590   -1.452469    0.537664
     38          1    20001034       -2.295114   -2.339436   -1.581741
     39          1    20001034       -3.147051   -1.124300   -2.480997
     40          1    20001034       -1.946984    0.657459   -1.248947
     41          1    20001034       -0.879621   -0.441488   -2.053808
     42          1    20001033       -1.348876   -0.182482    0.950955
     43          1    20001033        0.636101   -1.315316    1.288455
     44          1    20001034        0.565343   -2.101520   -1.667573
     45          1    20001034        1.446040   -2.887103   -0.393226
     46          1    20001034        2.897383   -1.646014   -1.953148
     47          1    20001034        2.090172   -0.159365   -1.583792
     48          1    20001034        3.532648   -1.820090    0.527321
     49          1    20001034        2.835456   -0.240077    0.752043
     50          1    20001034        4.604677   -0.542790   -2.376575
     51          1    20001034        5.246037   -1.925968   -1.521241
     52          1    20001034        6.253041   -0.496737   -1.783971
     53          1    20001029        3.751237    1.591948    0.037455
     54          1    20001034        6.052589    4.109374   -0.809646
     55          1    20001034        5.282054    3.715699    0.722473
     56          1    20001034        4.313994    3.778467   -0.746920
     57          1    20001029        6.606835   -2.003134    0.107831
     58          1    20001035        7.751516   -2.795003    1.945973
     59          1    20001035        6.783066   -1.778037    3.008054
     60          1    20001035        8.115103   -1.073517    2.105639
     61          1    20001029       -5.842257   -1.727921    0.903149
     62          1    20001034       -8.559271   -0.087739    2.423176
     63          1    20001034       -7.406989   -1.412859    2.643805
     64          1    20001034       -8.580141   -1.469605    1.336157
 ---------------------------------------------------------------------

 SCF Done:  E(RHF) =  -1295.61865401     A.U. after   14 cycles

 The electronic state is 1-A.
 Alpha  occ. eigenvalues --  -20.53726 -20.51986 -20.51976 -20.51741 -15.59697
 Alpha  occ. eigenvalues --  -15.58002 -15.57647 -15.57470 -11.36042 -11.34165
 Alpha  occ. eigenvalues --  -11.33992 -11.33796 -11.29148 -11.28548 -11.25165
 Alpha  occ. eigenvalues --  -11.24997 -11.24408 -11.24143 -11.23455 -11.22896
 Alpha  occ. eigenvalues --  -11.22857 -11.22792 -11.22387 -11.22377 -11.22192
 Alpha  occ. eigenvalues --  -11.21864 -11.21654 -11.20977  -1.40667  -1.39361
 Alpha  occ. eigenvalues --   -1.38841  -1.38093  -1.25529  -1.23502  -1.22716
 Alpha  occ. eigenvalues --   -1.22191  -1.11022  -1.09509  -1.07312  -1.04206
 Alpha  occ. eigenvalues --   -1.01230  -0.99398  -0.98540  -0.95627  -0.95283
 Alpha  occ. eigenvalues --   -0.94594  -0.92737  -0.87997  -0.86163  -0.82592
 Alpha  occ. eigenvalues --   -0.80922  -0.79437  -0.78843  -0.77293  -0.76790
 Alpha  occ. eigenvalues --   -0.71994  -0.71309  -0.70997  -0.69029  -0.68273
 Alpha  occ. eigenvalues --   -0.66658  -0.65945  -0.65313  -0.64182  -0.63812
 Alpha  occ. eigenvalues --   -0.62896  -0.62547  -0.62054  -0.61476  -0.61152
 Alpha  occ. eigenvalues --   -0.60919  -0.60024  -0.59249  -0.59084  -0.58406
 Alpha  occ. eigenvalues --   -0.58309  -0.58105  -0.56860  -0.56708  -0.55976
 Alpha  occ. eigenvalues --   -0.55437  -0.55225  -0.54647  -0.54404  -0.53725
 Alpha  occ. eigenvalues --   -0.53326  -0.52974  -0.52820  -0.52268  -0.51186
 Alpha  occ. eigenvalues --   -0.50959  -0.50385  -0.49798  -0.49212  -0.48772
 Alpha  occ. eigenvalues --   -0.48310  -0.47152  -0.47075  -0.44634  -0.42961
 Alpha  occ. eigenvalues --   -0.42056  -0.41627  -0.40962  -0.39397  -0.38899
 Alpha  occ. eigenvalues --   -0.38439  -0.38338  -0.34732
 Alpha virt. eigenvalues --    0.17245   0.18727   0.19894   0.19993   0.20121
 Alpha virt. eigenvalues --    0.21183   0.22027   0.23089   0.23456   0.23793
 Alpha virt. eigenvalues --    0.25173   0.25243   0.26410   0.27042   0.27368

 Mulliken atomic charges:
              1
     1  C   -0.279716
     2  N   -0.783373
     3  C    0.821842
     4  O   -0.629031
     5  C    0.102395
     6  C   -0.472734
     7  C   -0.334614
     8  C   -0.311447
     9  C   -0.372823
    10  C   -0.181478
    11  C   -0.180341
    12  C   -0.350936
    13  C   -0.307809
    14  C   -0.335791
    15  C    0.105696
    16  C   -0.524182
    17  N   -0.784113
    18  C    0.766429
    19  C   -0.594602
    20  O   -0.614638
    21  C    0.806643
    22  O   -0.633780
    23  N   -0.803816
    24  C   -0.274569
    25  N   -0.843042
    26  C    0.744532
    27  C   -0.588764
    28  O   -0.591782
    29  H    0.187370
    30  H    0.196738
    31  H    0.163744
    32  H    0.391912
    33  H    0.198152
    34  H    0.144367
    35  H    0.212853
    36  H    0.161896
    37  H    0.183105
    38  H    0.164810
    39  H    0.179417
    40  H    0.212874
    41  H    0.170698
    42  H    0.182451
    43  H    0.176365
    44  H    0.175799
    45  H    0.164985
    46  H    0.169811
    47  H    0.173979
    48  H    0.178791
    49  H    0.181719
    50  H    0.192809
    51  H    0.147014
    52  H    0.226606
    53  H    0.384669
    54  H    0.210894
    55  H    0.208781
    56  H    0.178755
    57  H    0.395825
    58  H    0.164355
    59  H    0.197903
    60  H    0.185638
    61  H    0.382863
    62  H    0.218924
    63  H    0.177605
    64  H    0.201364
 Sum of Mulliken atomic charges =   0.00000

 Dipole moment (field-independent basis, Debye):
    X=             -2.6682    Y=             -6.6147    Z=              2.1984  Tot=              7.4637
 Quadrupole moment (field-independent basis, Debye-Ang):
   XX=           -194.6880   YY=           -162.7117   ZZ=           -172.6796
   XY=             11.3469   XZ=            -22.0194   YZ=              4.0373

 Normal termination of Gaussian 09 at Thu Dec  5 19:27:53 2019.
