 Gaussian 09, Revision A.02,
 Gaussian 09:  EM64L-G09RevA.02 11-Jun-2009

 ---------------------------------
 #SP HF/6-31G* Geom=(ModRedundant)
 ---------------------------------

 ------------
 paramfit run
 ------------
 Symbolic Z-matrix:
 Charge =  0 Multiplicity = 1

                         Standard orientation:
 ---------------------------------------------------------------------
 Center     Atomic      Atomic             Coordinates (Angstroms)
 Number     Number       Type             X           Y           Z
 ---------------------------------------------------------------------
      1          6    20001001       -3.812971    2.961464    0.451120
      2          7    20001014       -4.170871    1.561049    0.540503
      3          6    20001002       -4.514201    0.879405   -0.577350
      4          8    20001024       -4.325297    1.311919   -1.680524
      5          6    90000001       -5.040131   -0.552396   -0.370641
      6          6    90000002       -5.802440   -1.004459   -1.620587
      7          6    90000002       -3.863469   -1.511970   -0.044625
      8          6    90000002       -2.734070   -1.686307   -1.075984
      9          6    90000002       -1.612365   -0.628906   -1.093845
     10          6    20001004       -0.901841   -0.464022    0.229123
     11          6    20001004        0.251201   -0.998655    0.597115
     12          6    90000002        1.142434   -1.907645   -0.214792
     13          6    90000002        2.375468   -1.211706   -0.818829
     14          6    90000002        3.305855   -0.622393    0.249817
     15          6    90000002        4.671820   -0.049814   -0.209462
     16          6    90000002        4.873243   -0.451062   -1.679796
     17          7    20001014        4.624934    1.402220   -0.104934
     18          6    20001002        5.736712    2.168013   -0.306349
     19          6    20001001        5.632845    3.588371    0.200209
     20          8    20001024        6.725138    1.752313   -0.844262
     21          6    20001002        5.769201   -0.568863    0.747130
     22          8    20001024        5.975616   -0.011807    1.791646
     23          7    20001014        6.399186   -1.714380    0.408179
     24          6    20001001        7.472401   -2.228742    1.233915
     25          7    20001014       -5.909314   -0.613423    0.813516
     26          6    20001002       -7.055695    0.112599    0.949077
     27          6    20001001       -7.980351   -0.346768    2.057279
     28          8    20001024       -7.311107    1.053650    0.252423
     29          1    20001035       -4.655029    3.574529    0.151055
     30          1    20001035       -3.020143    3.090158   -0.271089
     31          1    20001035       -3.460424    3.290685    1.420489
     32          1    20001029       -4.570482    1.245995    1.393344
     33          1    20001034       -5.180905   -0.943621   -2.500886
     34          1    20001034       -6.133433   -2.030487   -1.490408
     35          1    20001034       -6.664642   -0.374484   -1.783888
     36          1    20001034       -4.315614   -2.490212    0.103114
     37          1    20001034       -3.440376   -1.224853    0.912891
     38          1    20001034       -2.272754   -2.647112   -0.867035
     39          1    20001034       -3.152023   -1.763744   -2.074329
     40          1    20001034       -2.009936    0.328815   -1.403799
     41          1    20001034       -0.907247   -0.923274   -1.863254
     42          1    20001033       -1.403402    0.168729    0.943389
     43          1    20001033        0.609895   -0.763845    1.587047
     44          1    20001034        0.580527   -2.362363   -1.021613
     45          1    20001034        1.474166   -2.726385    0.422556
     46          1    20001034        2.900905   -1.941161   -1.428902
     47          1    20001034        2.050417   -0.434492   -1.497879
     48          1    20001034        3.524287   -1.382235    0.997121
     49          1    20001034        2.782147    0.175743    0.762711
     50          1    20001034        4.117993    0.042124   -2.280581
     51          1    20001034        4.749393   -1.520415   -1.815907
     52          1    20001034        5.843677   -0.150924   -2.045739
     53          1    20001029        3.992290    1.758865    0.574240
     54          1    20001034        6.360408    4.199989   -0.311295
     55          1    20001034        5.858080    3.594120    1.262452
     56          1    20001034        4.639898    4.000940    0.057992
     57          1    20001029        6.379386   -2.001480   -0.541818
     58          1    20001035        7.757266   -3.204208    0.862109
     59          1    20001035        7.132800   -2.326080    2.254613
     60          1    20001035        8.338647   -1.575119    1.221647
     61          1    20001029       -5.851861   -1.453195    1.345520
     62          1    20001034       -8.623258    0.474543    2.338511
     63          1    20001034       -7.436220   -0.699256    2.926316
     64          1    20001034       -8.598657   -1.160016    1.691046
 ---------------------------------------------------------------------

 SCF Done:  E(RHF) =  -1295.60975910     A.U. after   14 cycles

 The electronic state is 1-A.
 Alpha  occ. eigenvalues --  -20.53741 -20.52001 -20.51985 -20.51690 -15.59712
 Alpha  occ. eigenvalues --  -15.58004 -15.57670 -15.57513 -11.36058 -11.34165
 Alpha  occ. eigenvalues --  -11.34007 -11.33764 -11.29161 -11.28504 -11.25167
 Alpha  occ. eigenvalues --  -11.25030 -11.24424 -11.24153 -11.23463 -11.22901
 Alpha  occ. eigenvalues --  -11.22865 -11.22793 -11.22430 -11.22408 -11.22209
 Alpha  occ. eigenvalues --  -11.21865 -11.21539 -11.20988  -1.40682  -1.39361
 Alpha  occ. eigenvalues --   -1.38855  -1.38091  -1.25544  -1.23549  -1.22714
 Alpha  occ. eigenvalues --   -1.22214  -1.11081  -1.09592  -1.07350  -1.04162
 Alpha  occ. eigenvalues --   -1.01225  -0.99437  -0.98490  -0.95653  -0.95300
 Alpha  occ. eigenvalues --   -0.94589  -0.92850  -0.88155  -0.86245  -0.82594
 Alpha  occ. eigenvalues --   -0.80972  -0.79372  -0.78630  -0.77314  -0.76919
 Alpha  occ. eigenvalues --   -0.72038  -0.71347  -0.71123  -0.69030  -0.68358
 Alpha  occ. eigenvalues --   -0.66624  -0.65958  -0.65218  -0.64198  -0.63969
 Alpha  occ. eigenvalues --   -0.62903  -0.62562  -0.61862  -0.61617  -0.61180
 Alpha  occ. eigenvalues --   -0.61119  -0.60079  -0.59531  -0.59112  -0.58407
 Alpha  occ. eigenvalues --   -0.58293  -0.58177  -0.56907  -0.56381  -0.56014
 Alpha  occ. eigenvalues --   -0.55685  -0.55023  -0.54693  -0.54532  -0.53977
 Alpha  occ. eigenvalues --   -0.53242  -0.52921  -0.52518  -0.52252  -0.51207
 Alpha  occ. eigenvalues --   -0.51022  -0.50411  -0.49864  -0.49197  -0.48625
 Alpha  occ. eigenvalues --   -0.48104  -0.47224  -0.47096  -0.44646  -0.42976
 Alpha  occ. eigenvalues --   -0.42069  -0.41659  -0.40911  -0.39413  -0.38902
 Alpha  occ. eigenvalues --   -0.38460  -0.38350  -0.34739
 Alpha virt. eigenvalues --    0.17197   0.18712   0.19878   0.20036   0.20206
 Alpha virt. eigenvalues --    0.21447   0.21963   0.22989   0.23138   0.23855
 Alpha virt. eigenvalues --    0.25144   0.25206   0.25771   0.26413   0.27360

 Mulliken atomic charges:
              1
     1  C   -0.279717
     2  N   -0.783447
     3  C    0.821844
     4  O   -0.628812
     5  C    0.102365
     6  C   -0.472746
     7  C   -0.334568
     8  C   -0.311585
     9  C   -0.372670
    10  C   -0.180663
    11  C   -0.179398
    12  C   -0.349935
    13  C   -0.310163
    14  C   -0.341381
    15  C    0.133296
    16  C   -0.524257
    17  N   -0.792184
    18  C    0.766608
    19  C   -0.594784
    20  O   -0.613727
    21  C    0.788283
    22  O   -0.631880
    23  N   -0.802476
    24  C   -0.274179
    25  N   -0.843078
    26  C    0.744492
    27  C   -0.588754
    28  O   -0.591791
    29  H    0.187458
    30  H    0.197213
    31  H    0.163014
    32  H    0.391823
    33  H    0.198208
    34  H    0.144402
    35  H    0.212849
    36  H    0.161970
    37  H    0.182949
    38  H    0.164867
    39  H    0.179405
    40  H    0.213178
    41  H    0.170784
    42  H    0.181648
    43  H    0.174486
    44  H    0.175305
    45  H    0.166511
    46  H    0.166482
    47  H    0.176428
    48  H    0.187648
    49  H    0.174067
    50  H    0.189985
    51  H    0.148089
    52  H    0.228717
    53  H    0.385118
    54  H    0.211191
    55  H    0.208570
    56  H    0.177939
    57  H    0.396499
    58  H    0.164336
    59  H    0.197551
    60  H    0.185825
    61  H    0.382895
    62  H    0.218885
    63  H    0.177573
    64  H    0.201440
 Sum of Mulliken atomic charges =   0.00000

 Dipole moment (field-independent basis, Debye):
    X=             -2.9364    Y=             -5.0775    Z=              3.6310  Tot=              6.8984
 Quadrupole moment (field-independent basis, Debye-Ang):
   XX=           -201.3027   YY=           -158.3117   ZZ=           -175.8468
   XY=              7.7055   XZ=            -31.4972   YZ=              8.9301

 Normal termination of Gaussian 09 at Thu Dec  5 19:42:50 2019.
