 Gaussian 09, Revision A.02,
 Gaussian 09:  EM64L-G09RevA.02 11-Jun-2009

 ---------------------------------
 #SP HF/6-31G* Geom=(ModRedundant)
 ---------------------------------

 ------------
 paramfit run
 ------------
 Symbolic Z-matrix:
 Charge =  0 Multiplicity = 1

                         Standard orientation:
 ---------------------------------------------------------------------
 Center     Atomic      Atomic             Coordinates (Angstroms)
 Number     Number       Type             X           Y           Z
 ---------------------------------------------------------------------
      1          6    20001001       -4.001759   -2.507043    1.749446
      2          7    20001014       -4.301286   -1.541659    0.712353
      3          6    20001002       -4.564448   -0.255714    1.042806
      4          8    20001024       -4.346098    0.187229    2.136364
      5          6    90000001       -5.035492    0.661308   -0.100249
      6          6    90000002       -5.721070    1.900259    0.485264
      7          6    90000002       -3.833330    1.050404   -1.003031
      8          6    90000002       -2.652792    1.820353   -0.384044
      9          6    90000002       -1.579021    1.003859    0.362274
     10          6    20001004       -0.935722   -0.076406   -0.475264
     11          6    20001004        0.222306   -0.019918   -1.112868
     12          6    90000002        1.187756    1.139931   -1.161947
     13          6    90000002        2.414504    0.982458   -0.245510
     14          6    90000002        3.269819   -0.239740   -0.605488
     15          6    90000002        4.628258   -0.417379    0.120965
     16          6    90000002        4.328657   -0.776797    1.585379
     17          7    20001014        5.351536   -1.513351   -0.509307
     18          6    20001002        6.641632   -1.804097   -0.171406
     19          6    20001001        7.372786   -2.692289   -1.151883
     20          8    20001024        7.162552   -1.389996    0.826745
     21          6    20001002        5.455269    0.875724   -0.059767
     22          8    20001024        6.101022    1.047410   -1.058493
     23          7    20001014        5.336824    1.827994    0.890566
     24          6    20001001        6.122516    3.042162    0.808783
     25          7    20001014       -5.952729   -0.061947   -0.993003
     26          6    20001002       -7.134828   -0.605459   -0.584458
     27          6    20001001       -8.086536   -0.986693   -1.699372
     28          8    20001024       -7.400310   -0.781698    0.570790
     29          1    20001035       -4.855869   -2.686344    2.392329
     30          1    20001035       -3.184162   -2.147982    2.357173
     31          1    20001035       -3.707313   -3.437655    1.280814
     32          1    20001029       -4.724017   -1.882123   -0.119313
     33          1    20001034       -5.064444    2.428359    1.159716
     34          1    20001034       -6.012026    2.566981   -0.321002
     35          1    20001034       -6.602084    1.615224    1.041587
     36          1    20001034       -4.248083    1.678214   -1.788558
     37          1    20001034       -3.466098    0.153826   -1.492490
     38          1    20001034       -2.159343    2.336178   -1.202610
     39          1    20001034       -3.022315    2.594446    0.280492
     40          1    20001034       -2.004241    0.556323    1.251242
     41          1    20001034       -0.828253    1.704751    0.710026
     42          1    20001033       -1.495779   -0.994606   -0.548449
     43          1    20001033        0.526130   -0.897419   -1.661907
     44          1    20001034        0.682685    2.060936   -0.897147
     45          1    20001034        1.526652    1.264759   -2.189644
     46          1    20001034        2.998034    1.896302   -0.314479
     47          1    20001034        2.085950    0.915936    0.783303
     48          1    20001034        3.488175   -0.226371   -1.671170
     49          1    20001034        2.689296   -1.135582   -0.418915
     50          1    20001034        3.839448   -1.743512    1.612228
     51          1    20001034        3.652388   -0.057850    2.036107
     52          1    20001034        5.232007   -0.839998    2.173345
     53          1    20001029        5.124473   -1.679054   -1.463087
     54          1    20001034        8.205675   -3.161352   -0.650547
     55          1    20001034        7.755060   -2.074976   -1.959296
     56          1    20001034        6.724717   -3.450760   -1.577453
     57          1    20001029        5.003043    1.562403    1.786870
     58          1    20001035        5.795443    3.718445    1.587620
     59          1    20001035        5.970122    3.511273   -0.152120
     60          1    20001035        7.182773    2.844647    0.929596
     61          1    20001029       -5.881987    0.168161   -1.959229
     62          1    20001034       -8.776788   -1.731052   -1.329974
     63          1    20001034       -7.566435   -1.370432   -2.569883
     64          1    20001034       -8.651628   -0.110443   -2.000466
 ---------------------------------------------------------------------

 SCF Done:  E(RHF) =  -1295.62070580     A.U. after   14 cycles

 The electronic state is 1-A.
 Alpha  occ. eigenvalues --  -20.53740 -20.52087 -20.51992 -20.51715 -15.59707
 Alpha  occ. eigenvalues --  -15.57901 -15.57660 -15.57655 -11.36057 -11.34332
 Alpha  occ. eigenvalues --  -11.33999 -11.33711 -11.29150 -11.28536 -11.25134
 Alpha  occ. eigenvalues --  -11.25013 -11.24427 -11.24136 -11.23448 -11.22871
 Alpha  occ. eigenvalues --  -11.22721 -11.22658 -11.22568 -11.22364 -11.22164
 Alpha  occ. eigenvalues --  -11.21841 -11.21562 -11.20979  -1.40680  -1.39417
 Alpha  occ. eigenvalues --   -1.38847  -1.38143  -1.25538  -1.23593  -1.22701
 Alpha  occ. eigenvalues --   -1.22204  -1.10979  -1.09480  -1.07283  -1.04189
 Alpha  occ. eigenvalues --   -1.01264  -0.99453  -0.98557  -0.95638  -0.95262
 Alpha  occ. eigenvalues --   -0.94599  -0.92504  -0.87699  -0.86016  -0.82931
 Alpha  occ. eigenvalues --   -0.81686  -0.79265  -0.78234  -0.77305  -0.76769
 Alpha  occ. eigenvalues --   -0.71727  -0.71502  -0.71275  -0.69025  -0.68337
 Alpha  occ. eigenvalues --   -0.66588  -0.65942  -0.64808  -0.64193  -0.64021
 Alpha  occ. eigenvalues --   -0.63188  -0.62643  -0.62283  -0.61493  -0.61175
 Alpha  occ. eigenvalues --   -0.60768  -0.60019  -0.59472  -0.58818  -0.58722
 Alpha  occ. eigenvalues --   -0.58327  -0.57709  -0.57079  -0.56355  -0.55832
 Alpha  occ. eigenvalues --   -0.55546  -0.54964  -0.54720  -0.54570  -0.53615
 Alpha  occ. eigenvalues --   -0.53414  -0.52922  -0.52576  -0.52122  -0.51369
 Alpha  occ. eigenvalues --   -0.51124  -0.50545  -0.49958  -0.49303  -0.48616
 Alpha  occ. eigenvalues --   -0.48068  -0.47120  -0.46867  -0.44772  -0.42973
 Alpha  occ. eigenvalues --   -0.42062  -0.41560  -0.41060  -0.39406  -0.38902
 Alpha  occ. eigenvalues --   -0.38452  -0.38401  -0.34673
 Alpha virt. eigenvalues --    0.17201   0.18712   0.19818   0.19885   0.20158
 Alpha virt. eigenvalues --    0.21635   0.22128   0.23020   0.23151   0.23856
 Alpha virt. eigenvalues --    0.25190   0.25304   0.25842   0.26733   0.27668

 Mulliken atomic charges:
              1
     1  C   -0.279677
     2  N   -0.783389
     3  C    0.821936
     4  O   -0.628977
     5  C    0.102328
     6  C   -0.472716
     7  C   -0.334529
     8  C   -0.311644
     9  C   -0.372584
    10  C   -0.180692
    11  C   -0.177422
    12  C   -0.352386
    13  C   -0.319798
    14  C   -0.330353
    15  C    0.106048
    16  C   -0.511957
    17  N   -0.789204
    18  C    0.767274
    19  C   -0.594192
    20  O   -0.613206
    21  C    0.801328
    22  O   -0.635996
    23  N   -0.798218
    24  C   -0.275116
    25  N   -0.843094
    26  C    0.744501
    27  C   -0.588725
    28  O   -0.591803
    29  H    0.187282
    30  H    0.197478
    31  H    0.163028
    32  H    0.391674
    33  H    0.198149
    34  H    0.144502
    35  H    0.212749
    36  H    0.162071
    37  H    0.182724
    38  H    0.165521
    39  H    0.179198
    40  H    0.212847
    41  H    0.170426
    42  H    0.181312
    43  H    0.170861
    44  H    0.175744
    45  H    0.169364
    46  H    0.188719
    47  H    0.167303
    48  H    0.168673
    49  H    0.186619
    50  H    0.184618
    51  H    0.152451
    52  H    0.224452
    53  H    0.382336
    54  H    0.211494
    55  H    0.209139
    56  H    0.176881
    57  H    0.396515
    58  H    0.165258
    59  H    0.196580
    60  H    0.185665
    61  H    0.382873
    62  H    0.218818
    63  H    0.177436
    64  H    0.201501
 Sum of Mulliken atomic charges =   0.00000

 Dipole moment (field-independent basis, Debye):
    X=             -3.3568    Y=             -0.7841    Z=             -5.6301  Tot=              6.6016
 Quadrupole moment (field-independent basis, Debye-Ang):
   XX=           -208.3617   YY=           -157.3207   ZZ=           -173.0403
   XY=              0.8881   XZ=             33.9775   YZ=              9.6521

 Normal termination of Gaussian 09 at Thu Dec  5 19:25:22 2019.
