 Gaussian 09, Revision A.02,
 Gaussian 09:  EM64L-G09RevA.02 11-Jun-2009

 ---------------------------------
 #SP HF/6-31G* Geom=(ModRedundant)
 ---------------------------------

 ------------
 paramfit run
 ------------
 Symbolic Z-matrix:
 Charge =  0 Multiplicity = 1

                         Standard orientation:
 ---------------------------------------------------------------------
 Center     Atomic      Atomic             Coordinates (Angstroms)
 Number     Number       Type             X           Y           Z
 ---------------------------------------------------------------------
      1          6    20001001       -3.936985    1.895894    2.328159
      2          7    20001014       -4.239576    0.784555    1.450316
      3          6    20001002       -4.452145    1.004352    0.131751
      4          8    20001024       -4.185306    2.046340   -0.400042
      5          6    90000001       -4.930971   -0.203083   -0.694210
      6          6    90000002       -5.558824    0.287169   -2.003139
      7          6    90000002       -3.746876   -1.172064   -0.959913
      8          6    90000002       -2.523889   -0.660179   -1.742161
      9          6    90000002       -1.452527    0.125663   -0.960321
     10          6    20001004       -0.870075   -0.628650    0.211874
     11          6    20001004        0.268137   -1.302167    0.251933
     12          6    90000002        1.266914   -1.484461   -0.865639
     13          6    90000002        2.516920   -0.593587   -0.749910
     14          6    90000002        3.322081   -0.865792    0.527797
     15          6    90000002        4.696941   -0.166035    0.685103
     16          6    90000002        4.723957    0.499294    2.070764
     17          7    20001014        5.743035   -1.176903    0.611878
     18          6    20001002        7.063943   -0.834940    0.575512
     19          6    20001001        7.995233   -1.935781    0.122021
     20          8    20001024        7.463157    0.254765    0.879340
     21          6    20001002        4.887552    0.814221   -0.494512
     22          8    20001024        5.298560    0.417530   -1.551696
     23          7    20001014        4.480160    2.089412   -0.315905
     24          6    20001001        4.676305    3.071438   -1.362497
     25          7    20001014       -5.898240   -0.999388    0.075023
     26          6    20001002       -7.082889   -0.508948    0.539509
     27          6    20001001       -8.081135   -1.556464    0.987098
     28          8    20001024       -7.316569    0.664765    0.602204
     29          1    20001035       -4.775207    2.576979    2.420108
     30          1    20001035       -3.089640    2.444451    1.943692
     31          1    20001035       -3.686602    1.505361    3.306498
     32          1    20001029       -4.699040   -0.000097    1.849690
     33          1    20001034       -4.864930    0.891477   -2.567281
     34          1    20001034       -5.854695   -0.567515   -2.604148
     35          1    20001034       -6.429964    0.892478   -1.799073
     36          1    20001034       -4.166961   -1.998970   -1.528223
     37          1    20001034       -3.423396   -1.588538   -0.011130
     38          1    20001034       -2.041191   -1.536222   -2.165445
     39          1    20001034       -2.847839   -0.058235   -2.584832
     40          1    20001034       -1.862699    1.063598   -0.609038
     41          1    20001034       -0.669703    0.386324   -1.663936
     42          1    20001033       -1.460305   -0.601807    1.113550
     43          1    20001033        0.526956   -1.777837    1.184945
     44          1    20001034        0.799292   -1.289831   -1.823195
     45          1    20001034        1.576430   -2.528670   -0.886147
     46          1    20001034        3.125913   -0.762223   -1.633689
     47          1    20001034        2.219575    0.446137   -0.787193
     48          1    20001034        3.506514   -1.934182    0.617588
     49          1    20001034        2.720413   -0.581810    1.383192
     50          1    20001034        4.687124   -0.275019    2.828171
     51          1    20001034        3.859154    1.138137    2.216963
     52          1    20001034        5.625965    1.073659    2.219852
     53          1    20001029        5.510408   -1.991829    0.091791
     54          1    20001034        8.993791   -1.719548    0.470140
     55          1    20001034        8.001982   -1.957809   -0.963610
     56          1    20001034        7.682407   -2.909616    0.482810
     57          1    20001029        4.379779    2.428048    0.611758
     58          1    20001035        4.177966    3.987700   -1.074324
     59          1    20001035        4.246128    2.711660   -2.285607
     60          1    20001035        5.728770    3.275371   -1.531268
     61          1    20001029       -5.851391   -1.984168   -0.064833
     62          1    20001034       -8.781887   -1.101057    1.671587
     63          1    20001034       -7.601284   -2.403282    1.464792
     64          1    20001034       -8.628220   -1.919337    0.122909
 ---------------------------------------------------------------------

 SCF Done:  E(RHF) =  -1295.61410045     A.U. after   14 cycles

 The electronic state is 1-A.
 Alpha  occ. eigenvalues --  -20.53683 -20.52128 -20.51915 -20.51626 -15.59640
 Alpha  occ. eigenvalues --  -15.57941 -15.57682 -15.57597 -11.36000 -11.34304
 Alpha  occ. eigenvalues --  -11.33923 -11.33728 -11.29063 -11.28505 -11.25029
 Alpha  occ. eigenvalues --  -11.24981 -11.24383 -11.24021 -11.23240 -11.22708
 Alpha  occ. eigenvalues --  -11.22588 -11.22358 -11.22157 -11.21954 -11.21861
 Alpha  occ. eigenvalues --  -11.21753 -11.21635 -11.20891  -1.40622  -1.39456
 Alpha  occ. eigenvalues --   -1.38772  -1.38181  -1.25468  -1.23658  -1.22679
 Alpha  occ. eigenvalues --   -1.22142  -1.10735  -1.09293  -1.07204  -1.04128
 Alpha  occ. eigenvalues --   -1.01187  -0.99372  -0.98671  -0.95587  -0.95151
 Alpha  occ. eigenvalues --   -0.94632  -0.92190  -0.87296  -0.85745  -0.83066
 Alpha  occ. eigenvalues --   -0.81683  -0.79302  -0.78389  -0.77240  -0.76895
 Alpha  occ. eigenvalues --   -0.71747  -0.71267  -0.71042  -0.68956  -0.68062
 Alpha  occ. eigenvalues --   -0.66634  -0.65884  -0.64888  -0.64027  -0.63594
 Alpha  occ. eigenvalues --   -0.62857  -0.62574  -0.62193  -0.61529  -0.61138
 Alpha  occ. eigenvalues --   -0.60827  -0.59935  -0.59427  -0.58634  -0.58553
 Alpha  occ. eigenvalues --   -0.58249  -0.57616  -0.56798  -0.56416  -0.55821
 Alpha  occ. eigenvalues --   -0.55181  -0.55015  -0.54828  -0.54609  -0.54055
 Alpha  occ. eigenvalues --   -0.53125  -0.52843  -0.52351  -0.52073  -0.51290
 Alpha  occ. eigenvalues --   -0.51057  -0.50462  -0.49695  -0.49263  -0.48443
 Alpha  occ. eigenvalues --   -0.47905  -0.46932  -0.46652  -0.44433  -0.42904
 Alpha  occ. eigenvalues --   -0.41986  -0.41594  -0.41059  -0.39335  -0.38945
 Alpha  occ. eigenvalues --   -0.38386  -0.38227  -0.34449
 Alpha virt. eigenvalues --    0.17464   0.18769   0.19652   0.19956   0.20206
 Alpha virt. eigenvalues --    0.21433   0.21676   0.23194   0.23529   0.23743
 Alpha virt. eigenvalues --    0.25320   0.25488   0.26456   0.27231   0.27606

 Mulliken atomic charges:
              1
     1  C   -0.279418
     2  N   -0.783232
     3  C    0.822120
     4  O   -0.628886
     5  C    0.102238
     6  C   -0.472718
     7  C   -0.334427
     8  C   -0.311596
     9  C   -0.372815
    10  C   -0.182022
    11  C   -0.176458
    12  C   -0.350724
    13  C   -0.340893
    14  C   -0.349048
    15  C    0.143444
    16  C   -0.518005
    17  N   -0.794561
    18  C    0.766602
    19  C   -0.594481
    20  O   -0.612468
    21  C    0.809044
    22  O   -0.641224
    23  N   -0.802024
    24  C   -0.275543
    25  N   -0.843076
    26  C    0.744542
    27  C   -0.588692
    28  O   -0.591933
    29  H    0.187089
    30  H    0.197151
    31  H    0.162638
    32  H    0.391574
    33  H    0.198591
    34  H    0.144404
    35  H    0.212420
    36  H    0.161634
    37  H    0.182458
    38  H    0.165477
    39  H    0.179270
    40  H    0.211744
    41  H    0.173292
    42  H    0.179713
    43  H    0.169728
    44  H    0.176661
    45  H    0.160522
    46  H    0.201860
    47  H    0.180651
    48  H    0.164488
    49  H    0.188285
    50  H    0.184726
    51  H    0.151006
    52  H    0.223073
    53  H    0.383875
    54  H    0.211437
    55  H    0.209215
    56  H    0.176480
    57  H    0.396923
    58  H    0.166850
    59  H    0.197618
    60  H    0.185221
    61  H    0.382779
    62  H    0.218628
    63  H    0.177319
    64  H    0.201453
 Sum of Mulliken atomic charges =   0.00000

 Dipole moment (field-independent basis, Debye):
    X=             -2.9486    Y=             -6.4891    Z=              2.3169  Tot=              7.4948
 Quadrupole moment (field-independent basis, Debye-Ang):
   XX=           -199.6776   YY=           -161.9375   ZZ=           -168.7834
   XY=             23.4177   XZ=             -1.9429   YZ=              2.4234

 Normal termination of Gaussian 09 at Thu Dec  5 19:55:37 2019.
