 Gaussian 09, Revision A.02,
 Gaussian 09:  EM64L-G09RevA.02 11-Jun-2009

 ---------------------------------
 #SP HF/6-31G* Geom=(ModRedundant)
 ---------------------------------

 ------------
 paramfit run
 ------------
 Symbolic Z-matrix:
 Charge =  0 Multiplicity = 1

                         Standard orientation:
 ---------------------------------------------------------------------
 Center     Atomic      Atomic             Coordinates (Angstroms)
 Number     Number       Type             X           Y           Z
 ---------------------------------------------------------------------
      1          6    20001001        3.996665    2.668667    1.483857
      2          7    20001014        4.299385    1.601207    0.553194
      3          6    20001002        4.572174    0.358970    1.016382
      4          8    20001024        4.360223    0.032453    2.151375
      5          6    90000001        5.045750   -0.670490   -0.025407
      6          6    90000002        5.741430   -1.836427    0.684847
      7          6    90000002        3.843389   -1.160210   -0.877525
      8          6    90000002        2.669974   -1.868031   -0.176296
      9          6    90000002        1.593115   -0.984184    0.483875
     10          6    20001004        0.939982   -0.002356   -0.460427
     11          6    20001004       -0.219637   -0.133086   -1.084087
     12          6    90000002       -1.177460   -1.297719   -1.006908
     13          6    90000002       -2.402352   -1.052230   -0.107497
     14          6    90000002       -3.266945    0.119760   -0.591059
     15          6    90000002       -4.624254    0.364434    0.117806
     16          6    90000002       -4.331284    0.632120    1.603055
     17          7    20001014       -5.250724    1.539425   -0.472501
     18          6    20001002       -6.523001    1.909698   -0.144990
     19          6    20001001       -7.164930    2.894555   -1.095143
     20          8    20001024       -7.094877    1.489773    0.822358
     21          6    20001002       -5.540158   -0.853517   -0.139957
     22          8    20001024       -6.174668   -0.929963   -1.157544
     23          7    20001014       -5.513184   -1.855051    0.765681
     24          6    20001001       -6.384249   -3.002051    0.611283
     25          7    20001014        5.955325   -0.039637   -0.992944
     26          6    20001002        7.135039    0.551387   -0.648508
     27          6    20001001        8.080674    0.818922   -1.801036
     28          8    20001024        7.402961    0.850149    0.480695
     29          1    20001035        4.851570    2.920159    2.100979
     30          1    20001035        3.183398    2.370541    2.129178
     31          1    20001035        3.694535    3.542789    0.920846
     32          1    20001029        4.717218    1.854729   -0.311345
     33          1    20001034        5.090470   -2.294592    1.413728
     34          1    20001034        6.034306   -2.582609   -0.047734
     35          1    20001034        6.622260   -1.488752    1.204642
     36          1    20001034        4.259864   -1.864728   -1.594061
     37          1    20001034        3.468637   -0.322589   -1.457381
     38          1    20001034        2.177419   -2.470413   -0.934019
     39          1    20001034        3.046747   -2.565375    0.564735
     40          1    20001034        2.018120   -0.442716    1.319068
     41          1    20001034        0.848145   -1.649223    0.906458
     42          1    20001033        1.493656    0.906526   -0.632159
     43          1    20001033       -0.531043    0.679683   -1.721420
     44          1    20001034       -0.665413   -2.182452   -0.648410
     45          1    20001034       -1.518737   -1.532371   -2.014411
     46          1    20001034       -2.979972   -1.971921   -0.077495
     47          1    20001034       -2.071023   -0.875507    0.907304
     48          1    20001034       -3.488549   -0.007300   -1.648548
     49          1    20001034       -2.691842    1.033932   -0.502203
     50          1    20001034       -3.772854    1.557312    1.685247
     51          1    20001034       -3.719940   -0.155462    2.031252
     52          1    20001034       -5.240241    0.735243    2.176555
     53          1    20001029       -4.991122    1.731798   -1.412879
     54          1    20001034       -7.971809    3.400729   -0.587406
     55          1    20001034       -7.573803    2.345654   -1.938146
     56          1    20001034       -6.453501    3.621448   -1.471811
     57          1    20001029       -5.180544   -1.657014    1.679706
     58          1    20001035       -6.125145   -3.736287    1.362737
     59          1    20001035       -6.245735   -3.436126   -0.368013
     60          1    20001035       -7.429465   -2.731735    0.721778
     61          1    20001029        5.883091   -0.370802   -1.929245
     62          1    20001034        8.767090    1.602433   -1.514823
     63          1    20001034        7.555290    1.105424   -2.705159
     64          1    20001034        8.650665   -0.080607   -2.010222
 ---------------------------------------------------------------------

 SCF Done:  E(RHF) =  -1295.62094502     A.U. after   14 cycles

 The electronic state is 1-A.
 Alpha  occ. eigenvalues --  -20.53742 -20.52088 -20.51994 -20.51711 -15.59710
 Alpha  occ. eigenvalues --  -15.57971 -15.57661 -15.57659 -11.36059 -11.34332
 Alpha  occ. eigenvalues --  -11.34001 -11.33733 -11.29154 -11.28531 -11.25155
 Alpha  occ. eigenvalues --  -11.25012 -11.24429 -11.24142 -11.23410 -11.22881
 Alpha  occ. eigenvalues --  -11.22754 -11.22693 -11.22563 -11.22380 -11.22179
 Alpha  occ. eigenvalues --  -11.21851 -11.21502 -11.20983  -1.40682  -1.39418
 Alpha  occ. eigenvalues --   -1.38849  -1.38145  -1.25541  -1.23588  -1.22732
 Alpha  occ. eigenvalues --   -1.22205  -1.10998  -1.09498  -1.07289  -1.04179
 Alpha  occ. eigenvalues --   -1.01258  -0.99456  -0.98537  -0.95639  -0.95277
 Alpha  occ. eigenvalues --   -0.94571  -0.92559  -0.87787  -0.86070  -0.82852
 Alpha  occ. eigenvalues --   -0.81610  -0.79269  -0.78262  -0.77306  -0.76798
 Alpha  occ. eigenvalues --   -0.71715  -0.71567  -0.71282  -0.69026  -0.68371
 Alpha  occ. eigenvalues --   -0.66580  -0.65945  -0.64738  -0.64210  -0.64033
 Alpha  occ. eigenvalues --   -0.63149  -0.62635  -0.62248  -0.61497  -0.61178
 Alpha  occ. eigenvalues --   -0.60863  -0.60026  -0.59519  -0.58859  -0.58716
 Alpha  occ. eigenvalues --   -0.58329  -0.57797  -0.57067  -0.56373  -0.55915
 Alpha  occ. eigenvalues --   -0.55596  -0.54981  -0.54698  -0.54538  -0.53597
 Alpha  occ. eigenvalues --   -0.53364  -0.52923  -0.52526  -0.52059  -0.51395
 Alpha  occ. eigenvalues --   -0.51129  -0.50524  -0.49982  -0.49289  -0.48645
 Alpha  occ. eigenvalues --   -0.48037  -0.47129  -0.46900  -0.44785  -0.42976
 Alpha  occ. eigenvalues --   -0.42064  -0.41530  -0.41063  -0.39408  -0.38911
 Alpha  occ. eigenvalues --   -0.38456  -0.38422  -0.34694
 Alpha virt. eigenvalues --    0.17189   0.18710   0.19728   0.19882   0.20152
 Alpha virt. eigenvalues --    0.21652   0.22297   0.23043   0.23179   0.23922
 Alpha virt. eigenvalues --    0.25204   0.25272   0.26096   0.26714   0.27738

 Mulliken atomic charges:
              1
     1  C   -0.279704
     2  N   -0.783409
     3  C    0.821911
     4  O   -0.628931
     5  C    0.102339
     6  C   -0.472721
     7  C   -0.334524
     8  C   -0.311666
     9  C   -0.372560
    10  C   -0.180458
    11  C   -0.177173
    12  C   -0.351781
    13  C   -0.322439
    14  C   -0.338207
    15  C    0.107571
    16  C   -0.513522
    17  N   -0.789432
    18  C    0.767327
    19  C   -0.594102
    20  O   -0.613172
    21  C    0.806829
    22  O   -0.637027
    23  N   -0.800004
    24  C   -0.275348
    25  N   -0.843094
    26  C    0.744496
    27  C   -0.588727
    28  O   -0.591787
    29  H    0.187298
    30  H    0.197563
    31  H    0.163005
    32  H    0.391670
    33  H    0.198140
    34  H    0.144482
    35  H    0.212777
    36  H    0.162073
    37  H    0.182743
    38  H    0.165425
    39  H    0.179205
    40  H    0.213027
    41  H    0.170308
    42  H    0.181405
    43  H    0.170885
    44  H    0.175447
    45  H    0.169525
    46  H    0.184594
    47  H    0.170413
    48  H    0.175244
    49  H    0.186648
    50  H    0.184810
    51  H    0.153098
    52  H    0.224413
    53  H    0.382211
    54  H    0.211484
    55  H    0.209123
    56  H    0.176927
    57  H    0.396787
    58  H    0.165017
    59  H    0.197233
    60  H    0.185691
    61  H    0.382874
    62  H    0.218830
    63  H    0.177446
    64  H    0.201497
 Sum of Mulliken atomic charges =   0.00000

 Dipole moment (field-independent basis, Debye):
    X=              3.3491    Y=             -0.0620    Z=             -5.5803  Tot=              6.5085
 Quadrupole moment (field-independent basis, Debye-Ang):
   XX=           -208.8344   YY=           -156.3165   ZZ=           -174.0476
   XY=             -0.7791   XZ=            -35.4288   YZ=            -10.7504

 Normal termination of Gaussian 09 at Thu Dec  5 19:20:26 2019.
