 Gaussian 09, Revision A.02,
 Gaussian 09:  EM64L-G09RevA.02 11-Jun-2009

 ---------------------------------
 #SP HF/6-31G* Geom=(ModRedundant)
 ---------------------------------

 ------------
 paramfit run
 ------------
 Symbolic Z-matrix:
 Charge =  0 Multiplicity = 1

                         Standard orientation:
 ---------------------------------------------------------------------
 Center     Atomic      Atomic             Coordinates (Angstroms)
 Number     Number       Type             X           Y           Z
 ---------------------------------------------------------------------
      1          6    20001001        3.910810    2.322060   -1.877188
      2          7    20001014        4.219032    1.056491   -1.244273
      3          6    20001002        4.425798    1.002867    0.092320
      4          8    20001024        4.149430    1.911949    0.825079
      5          6    90000001        4.911138   -0.344935    0.655579
      6          6    90000002        5.531162   -0.129072    2.040070
      7          6    90000002        3.733569   -1.355771    0.711648
      8          6    90000002        2.504303   -1.023306    1.576523
      9          6    90000002        1.429493   -0.101182    0.967335
     10          6    20001004        0.856434   -0.603208   -0.337215
     11          6    20001004       -0.276528   -1.261893   -0.519671
     12          6    90000002       -1.277399   -1.676058    0.532220
     13          6    90000002       -2.533729   -0.788832    0.595701
     14          6    90000002       -3.332800   -0.798875   -0.714376
     15          6    90000002       -4.712406   -0.091029   -0.731323
     16          6    90000002       -4.840897    0.644505   -2.075172
     17          7    20001014       -5.754589   -1.103605   -0.630947
     18          6    20001002       -7.067410   -0.763053   -0.477388
     19          6    20001001       -7.966825   -1.885063   -0.011610
     20          8    20001024       -7.483445    0.341074   -0.694096
     21          6    20001002       -4.808967    0.827571    0.507861
     22          8    20001024       -5.140814    0.377468    1.571445
     23          7    20001014       -4.410407    2.109965    0.364340
     24          6    20001001       -4.522520    3.037159    1.471563
     25          7    20001014        5.886802   -0.960171   -0.256011
     26          6    20001002        7.069164   -0.376975   -0.604686
     27          6    20001001        8.076692   -1.303784   -1.252784
     28          8    20001024        7.294167    0.786230   -0.424498
     29          1    20001035        4.744148    3.013177   -1.823772
     30          1    20001035        3.058144    2.774463   -1.392403
     31          1    20001035        3.666454    2.138605   -2.915931
     32          1    20001029        4.685660    0.373445   -1.793811
     33          1    20001034        4.830958    0.342115    2.712847
     34          1    20001034        5.831594   -1.086757    2.454578
     35          1    20001034        6.398341    0.511073    1.968374
     36          1    20001034        4.158103   -2.278728    1.100416
     37          1    20001034        3.416220   -1.571166   -0.303820
     38          1    20001034        2.026910   -1.970733    1.809108
     39          1    20001034        2.821053   -0.604634    2.526132
     40          1    20001034        1.833668    0.891579    0.817568
     41          1    20001034        0.642519    0.004480    1.705807
     42          1    20001033        1.449269   -0.388188   -1.211529
     43          1    20001033       -0.528819   -1.538021   -1.531533
     44          1    20001034       -0.814265   -1.678620    1.511488
     45          1    20001034       -1.579081   -2.704378    0.336923
     46          1    20001034       -3.144200   -1.139093    1.423359
     47          1    20001034       -2.244364    0.223173    0.846586
     48          1    20001034       -3.508875   -1.827415   -1.022007
     49          1    20001034       -2.730615   -0.341584   -1.490654
     50          1    20001034       -4.864865   -0.089971   -2.871758
     51          1    20001034       -3.986691    1.289413   -2.253514
     52          1    20001034       -5.748955    1.226378   -2.126094
     53          1    20001029       -5.487088   -1.944291   -0.172251
     54          1    20001034       -8.987813   -1.650578   -0.271728
     55          1    20001034       -7.891716   -1.962734    1.068876
     56          1    20001034       -7.686568   -2.839327   -0.444296
     57          1    20001029       -4.378787    2.495661   -0.549744
     58          1    20001035       -4.043180    3.966653    1.193721
     59          1    20001035       -4.025542    2.630219    2.339916
     60          1    20001035       -5.558304    3.232889    1.729626
     61          1    20001029        5.846954   -1.953007   -0.321104
     62          1    20001034        8.776127   -0.713063   -1.826205
     63          1    20001034        7.604751   -2.037968   -1.896053
     64          1    20001034        8.623789   -1.832338   -0.478757
 ---------------------------------------------------------------------

 SCF Done:  E(RHF) =  -1295.61581959     A.U. after   14 cycles

 The electronic state is 1-A.
 Alpha  occ. eigenvalues --  -20.53673 -20.52132 -20.51898 -20.51598 -15.59629
 Alpha  occ. eigenvalues --  -15.57930 -15.57685 -15.57584 -11.35991 -11.34310
 Alpha  occ. eigenvalues --  -11.33907 -11.33704 -11.29049 -11.28507 -11.24998
 Alpha  occ. eigenvalues --  -11.24969 -11.24376 -11.24006 -11.23234 -11.22688
 Alpha  occ. eigenvalues --  -11.22588 -11.22347 -11.22145 -11.21942 -11.21879
 Alpha  occ. eigenvalues --  -11.21753 -11.21606 -11.20876  -1.40612  -1.39442
 Alpha  occ. eigenvalues --   -1.38755  -1.38162  -1.25457  -1.23647  -1.22652
 Alpha  occ. eigenvalues --   -1.22129  -1.10716  -1.09271  -1.07192  -1.04128
 Alpha  occ. eigenvalues --   -1.01181  -0.99359  -0.98684  -0.95574  -0.95130
 Alpha  occ. eigenvalues --   -0.94604  -0.92163  -0.87261  -0.85716  -0.83000
 Alpha  occ. eigenvalues --   -0.81609  -0.79329  -0.78476  -0.77227  -0.76886
 Alpha  occ. eigenvalues --   -0.71774  -0.71261  -0.71033  -0.68947  -0.68028
 Alpha  occ. eigenvalues --   -0.66646  -0.65874  -0.64818  -0.64003  -0.63622
 Alpha  occ. eigenvalues --   -0.62694  -0.62509  -0.62100  -0.61528  -0.61145
 Alpha  occ. eigenvalues --   -0.60858  -0.59921  -0.59411  -0.58645  -0.58530
 Alpha  occ. eigenvalues --   -0.58240  -0.57647  -0.56732  -0.56412  -0.55935
 Alpha  occ. eigenvalues --   -0.55233  -0.54946  -0.54791  -0.54605  -0.54023
 Alpha  occ. eigenvalues --   -0.53110  -0.52832  -0.52386  -0.52041  -0.51292
 Alpha  occ. eigenvalues --   -0.51046  -0.50424  -0.49683  -0.49254  -0.48458
 Alpha  occ. eigenvalues --   -0.47919  -0.46911  -0.46599  -0.44423  -0.42893
 Alpha  occ. eigenvalues --   -0.41972  -0.41546  -0.41072  -0.39322  -0.38948
 Alpha  occ. eigenvalues --   -0.38372  -0.38237  -0.34432
 Alpha virt. eigenvalues --    0.17456   0.18779   0.19605   0.19967   0.20215
 Alpha virt. eigenvalues --    0.21463   0.21690   0.23216   0.23658   0.23688
 Alpha virt. eigenvalues --    0.25285   0.25550   0.26404   0.27181   0.27614

 Mulliken atomic charges:
              1
     1  C   -0.279427
     2  N   -0.783242
     3  C    0.822106
     4  O   -0.628756
     5  C    0.102240
     6  C   -0.472730
     7  C   -0.334395
     8  C   -0.311633
     9  C   -0.373007
    10  C   -0.181666
    11  C   -0.176297
    12  C   -0.351811
    13  C   -0.332320
    14  C   -0.349109
    15  C    0.133492
    16  C   -0.515645
    17  N   -0.791840
    18  C    0.766404
    19  C   -0.594446
    20  O   -0.612529
    21  C    0.814942
    22  O   -0.642823
    23  N   -0.803443
    24  C   -0.275701
    25  N   -0.843075
    26  C    0.744548
    27  C   -0.588686
    28  O   -0.591923
    29  H    0.187061
    30  H    0.197293
    31  H    0.162505
    32  H    0.391526
    33  H    0.198705
    34  H    0.144347
    35  H    0.212399
    36  H    0.161545
    37  H    0.182373
    38  H    0.165294
    39  H    0.179387
    40  H    0.211899
    41  H    0.173917
    42  H    0.179610
    43  H    0.169495
    44  H    0.176916
    45  H    0.159437
    46  H    0.196378
    47  H    0.180523
    48  H    0.167997
    49  H    0.186618
    50  H    0.184452
    51  H    0.150323
    52  H    0.223550
    53  H    0.383488
    54  H    0.211419
    55  H    0.209237
    56  H    0.176435
    57  H    0.396643
    58  H    0.166724
    59  H    0.198122
    60  H    0.185077
    61  H    0.382746
    62  H    0.218606
    63  H    0.177287
    64  H    0.201439
 Sum of Mulliken atomic charges =   0.00000

 Dipole moment (field-independent basis, Debye):
    X=              2.8799    Y=             -6.0956    Z=             -3.6875  Tot=              7.6842
 Quadrupole moment (field-independent basis, Debye-Ang):
   XX=           -198.1701   YY=           -160.7283   ZZ=           -169.7864
   XY=            -21.3866   XZ=             -7.4525   YZ=             -4.1201

 Normal termination of Gaussian 09 at Thu Dec  5 20:00:41 2019.
