 Gaussian 09, Revision A.02,
 Gaussian 09:  EM64L-G09RevA.02 11-Jun-2009

 ---------------------------------
 #SP HF/6-31G* Geom=(ModRedundant)
 ---------------------------------

 ------------
 paramfit run
 ------------
 Symbolic Z-matrix:
 Charge =  0 Multiplicity = 1

                         Standard orientation:
 ---------------------------------------------------------------------
 Center     Atomic      Atomic             Coordinates (Angstroms)
 Number     Number       Type             X           Y           Z
 ---------------------------------------------------------------------
      1          6    20001001        3.923203    2.991983    0.392947
      2          7    20001014        4.249616    1.661104   -0.075520
      3          6    20001002        4.563435    0.690421    0.814088
      4          8    20001024        4.371199    0.808447    1.992587
      5          6    90000001        5.058521   -0.642752    0.225085
      6          6    90000002        5.794889   -1.439705    1.306968
      7          6    90000002        3.863991   -1.445623   -0.358095
      8          6    90000002        2.718394   -1.867172    0.579742
      9          6    90000002        1.621359   -0.826847    0.881198
     10          6    20001004        0.930992   -0.287258   -0.349458
     11          6    20001004       -0.229568   -0.670723   -0.856224
     12          6    90000002       -1.151435   -1.744405   -0.329802
     13          6    90000002       -2.375269   -1.209487    0.435482
     14          6    90000002       -3.278681   -0.326018   -0.435289
     15          6    90000002       -4.636497    0.133426    0.156228
     16          6    90000002       -4.546462   -0.000265    1.685108
     17          7    20001014       -4.847355    1.530684   -0.196955
     18          6    20001002       -6.028010    2.162683    0.067032
     19          6    20001001       -6.238165    3.459356   -0.680816
     20          8    20001024       -6.842084    1.728195    0.833613
     21          6    20001002       -5.763031   -0.704548   -0.489872
     22          8    20001024       -6.212803   -0.392719   -1.559637
     23          7    20001014       -6.136362   -1.837936    0.142612
     24          6    20001001       -7.220558   -2.642835   -0.381658
     25          7    20001014        5.940396   -0.398881   -0.925677
     26          6    20001002        7.104857    0.306858   -0.850610
     27          6    20001001        8.032032    0.145547   -2.037389
     28          8    20001024        7.373515    1.013864    0.078963
     29          1    20001035        4.775529    3.477446    0.854267
     30          1    20001035        3.124844    2.937914    1.118496
     31          1    20001035        3.590197    3.583389   -0.450676
     32          1    20001029        4.652164    1.581931   -0.979938
     33          1    20001034        5.164268   -1.606756    2.166819
     34          1    20001034        6.103576   -2.398804    0.901902
     35          1    20001034        6.669407   -0.900990    1.641529
     36          1    20001034        4.295110   -2.357073   -0.766281
     37          1    20001034        3.459344   -0.896136   -1.202255
     38          1    20001034        2.237513   -2.721666    0.112611
     39          1    20001034        3.122265   -2.226160    1.520694
     40          1    20001034        2.037216   -0.001390    1.444267
     41          1    20001034        0.900301   -1.302802    1.536467
     42          1    20001033        1.455731    0.504076   -0.859900
     43          1    20001033       -0.570656   -0.164278   -1.745569
     44          1    20001034       -0.610073   -2.417229    0.324185
     45          1    20001034       -1.494274   -2.348144   -1.169180
     46          1    20001034       -2.924850   -2.064591    0.819062
     47          1    20001034       -2.040578   -0.656933    1.303524
     48          1    20001034       -3.505556   -0.845880   -1.363624
     49          1    20001034       -2.730419    0.568500   -0.706579
     50          1    20001034       -3.802314    0.697475    2.051143
     51          1    20001034       -4.227958   -0.996357    1.974479
     52          1    20001034       -5.487485    0.230156    2.161683
     53          1    20001029       -4.391392    1.832208   -1.027553
     54          1    20001034       -6.972374    4.053533   -0.158369
     55          1    20001034       -6.617454    3.229465   -1.671985
     56          1    20001034       -5.317495    4.022596   -0.788105
     57          1    20001029       -5.927415   -1.931011    1.108526
     58          1    20001035       -7.280791   -3.557751    0.192990
     59          1    20001035       -7.025962   -2.888161   -1.415376
     60          1    20001035       -8.171545   -2.122969   -0.325814
     61          1    20001029        5.869974   -1.058762   -1.668069
     62          1    20001034        8.697172    0.995745   -2.078923
     63          1    20001034        7.490491    0.059011   -2.972694
     64          1    20001034        8.626827   -0.752529   -1.905175
 ---------------------------------------------------------------------

 SCF Done:  E(RHF) =  -1295.61246751     A.U. after   14 cycles

 The electronic state is 1-A.
 Alpha  occ. eigenvalues --  -20.53750 -20.52043 -20.52006 -20.51662 -15.59721
 Alpha  occ. eigenvalues --  -15.58062 -15.57675 -15.57607 -11.36067 -11.34236
 Alpha  occ. eigenvalues --  -11.34013 -11.33765 -11.29169 -11.28474 -11.25174
 Alpha  occ. eigenvalues --  -11.25027 -11.24434 -11.24163 -11.23361 -11.22976
 Alpha  occ. eigenvalues --  -11.22911 -11.22800 -11.22499 -11.22437 -11.22237
 Alpha  occ. eigenvalues --  -11.21881 -11.21390 -11.20995  -1.40691  -1.39391
 Alpha  occ. eigenvalues --   -1.38861  -1.38119  -1.25552  -1.23584  -1.22739
 Alpha  occ. eigenvalues --   -1.22219  -1.11095  -1.09596  -1.07343  -1.04162
 Alpha  occ. eigenvalues --   -1.01246  -0.99464  -0.98484  -0.95654  -0.95310
 Alpha  occ. eigenvalues --   -0.94521  -0.92805  -0.88122  -0.86240  -0.82661
 Alpha  occ. eigenvalues --   -0.81255  -0.79315  -0.78394  -0.77319  -0.76966
 Alpha  occ. eigenvalues --   -0.71906  -0.71474  -0.71276  -0.69035  -0.68418
 Alpha  occ. eigenvalues --   -0.66600  -0.65962  -0.64868  -0.64223  -0.64014
 Alpha  occ. eigenvalues --   -0.62962  -0.62589  -0.61920  -0.61522  -0.61283
 Alpha  occ. eigenvalues --   -0.61174  -0.60084  -0.59713  -0.59021  -0.58501
 Alpha  occ. eigenvalues --   -0.58277  -0.58127  -0.56963  -0.56277  -0.56138
 Alpha  occ. eigenvalues --   -0.55835  -0.55026  -0.54699  -0.54483  -0.54010
 Alpha  occ. eigenvalues --   -0.53021  -0.52888  -0.52369  -0.52029  -0.51272
 Alpha  occ. eigenvalues --   -0.51114  -0.50433  -0.49906  -0.49239  -0.48739
 Alpha  occ. eigenvalues --   -0.48084  -0.47181  -0.47081  -0.44738  -0.42985
 Alpha  occ. eigenvalues --   -0.42076  -0.41539  -0.40975  -0.39420  -0.38896
 Alpha  occ. eigenvalues --   -0.38478  -0.38463  -0.34760
 Alpha virt. eigenvalues --    0.17073   0.18702   0.19796   0.19871   0.20161
 Alpha virt. eigenvalues --    0.21676   0.22192   0.22733   0.23052   0.23815
 Alpha virt. eigenvalues --    0.25129   0.25269   0.26011   0.26629   0.27498

 Mulliken atomic charges:
              1
     1  C   -0.279739
     2  N   -0.783487
     3  C    0.821835
     4  O   -0.628769
     5  C    0.102362
     6  C   -0.472746
     7  C   -0.334542
     8  C   -0.311685
     9  C   -0.372684
    10  C   -0.179988
    11  C   -0.178035
    12  C   -0.349991
    13  C   -0.315482
    14  C   -0.356146
    15  C    0.142065
    16  C   -0.522184
    17  N   -0.795300
    18  C    0.766707
    19  C   -0.594346
    20  O   -0.612830
    21  C    0.795634
    22  O   -0.636051
    23  N   -0.802671
    24  C   -0.274827
    25  N   -0.843098
    26  C    0.744479
    27  C   -0.588741
    28  O   -0.591762
    29  H    0.187419
    30  H    0.197611
    31  H    0.162847
    32  H    0.391716
    33  H    0.198184
    34  H    0.144436
    35  H    0.212862
    36  H    0.162069
    37  H    0.182807
    38  H    0.165077
    39  H    0.179399
    40  H    0.213405
    41  H    0.170541
    42  H    0.181609
    43  H    0.172260
    44  H    0.175157
    45  H    0.168725
    46  H    0.163377
    47  H    0.178515
    48  H    0.191641
    49  H    0.179616
    50  H    0.187147
    51  H    0.152915
    52  H    0.226132
    53  H    0.383739
    54  H    0.211364
    55  H    0.208869
    56  H    0.177151
    57  H    0.396400
    58  H    0.164588
    59  H    0.197654
    60  H    0.186027
    61  H    0.382892
    62  H    0.218870
    63  H    0.177508
    64  H    0.201488
 Sum of Mulliken atomic charges =   0.00000

 Dipole moment (field-independent basis, Debye):
    X=              3.2098    Y=             -3.1157    Z=             -4.7542  Tot=              6.5278
 Quadrupole moment (field-independent basis, Debye-Ang):
   XX=           -206.8079   YY=           -155.5910   ZZ=           -176.4802
   XY=             -5.0444   XZ=            -36.4146   YZ=            -11.6680

 Normal termination of Gaussian 09 at Thu Dec  5 19:57:46 2019.
