 Gaussian 09, Revision A.02,
 Gaussian 09:  EM64L-G09RevA.02 11-Jun-2009

 ---------------------------------
 #SP HF/6-31G* Geom=(ModRedundant)
 ---------------------------------

 ------------
 paramfit run
 ------------
 Symbolic Z-matrix:
 Charge =  0 Multiplicity = 1

                         Standard orientation:
 ---------------------------------------------------------------------
 Center     Atomic      Atomic             Coordinates (Angstroms)
 Number     Number       Type             X           Y           Z
 ---------------------------------------------------------------------
      1          6    20001001       -3.594463    2.320574    1.898477
      2          7    20001014       -4.017122    1.083636    1.275107
      3          6    20001002       -4.376471    1.073773   -0.029838
      4          8    20001024       -4.153474    1.993422   -0.767580
      5          6    90000001       -4.969951   -0.241540   -0.565673
      6          6    90000002       -5.735574    0.032502   -1.864351
      7          6    90000002       -3.842762   -1.287903   -0.780548
      8          6    90000002       -2.709009   -0.971434   -1.772560
      9          6    90000002       -1.540025   -0.101707   -1.268885
     10          6    20001004       -0.840212   -0.657922   -0.051032
     11          6    20001004        0.282246   -1.357624   -0.015511
     12          6    90000002        1.141642   -1.774558   -1.184851
     13          6    90000002        2.413043   -0.926912   -1.370868
     14          6    90000002        3.355214   -0.999035   -0.161725
     15          6    90000002        4.751850   -0.336814   -0.286286
     16          6    90000002        5.490163   -1.023892   -1.446576
     17          7    20001014        4.569977    1.074920   -0.595253
     18          6    20001002        5.624582    1.941076   -0.620505
     19          6    20001001        5.248892    3.404493   -0.575012
     20          8    20001024        6.766020    1.575981   -0.674987
     21          6    20001002        5.470789   -0.445187    1.077571
     22          8    20001024        5.253146    0.359606    1.942943
     23          7    20001014        6.258174   -1.523255    1.281960
     24          6    20001001        7.000777   -1.660612    2.518033
     25          7    20001014       -5.856551   -0.850001    0.436897
     26          6    20001002       -6.970249   -0.238845    0.932716
     27          6    20001001       -7.929459   -1.150268    1.669836
     28          8    20001024       -7.173191    0.935561    0.807315
     29          1    20001035       -4.403601    3.039434    1.957508
     30          1    20001035       -2.787131    2.758490    1.330000
     31          1    20001035       -3.240052    2.100613    2.897658
     32          1    20001029       -4.441920    0.401035    1.858106
     33          1    20001034       -5.100356    0.499315   -2.601587
     34          1    20001034       -6.114788   -0.903135   -2.264373
     35          1    20001034       -6.565863    0.698062   -1.678404
     36          1    20001034       -4.341040   -2.185552   -1.139941
     37          1    20001034       -3.419653   -1.541484    0.186384
     38          1    20001034       -2.294869   -1.926962   -2.080899
     39          1    20001034       -3.116865   -0.516604   -2.669308
     40          1    20001034       -1.889300    0.899047   -1.050113
     41          1    20001034       -0.839010   -0.001068   -2.090033
     42          1    20001033       -1.321712   -0.448198    0.890396
     43          1    20001033        0.638211   -1.669685    0.953854
     44          1    20001034        0.570232   -1.735035   -2.104305
     45          1    20001034        1.427188   -2.817093   -1.050026
     46          1    20001034        2.912599   -1.273616   -2.271209
     47          1    20001034        2.132823    0.100466   -1.562700
     48          1    20001034        3.528829   -2.040851    0.099065
     49          1    20001034        2.861804   -0.544241    0.689193
     50          1    20001034        4.965445   -0.805591   -2.369395
     51          1    20001034        5.497499   -2.102023   -1.324263
     52          1    20001034        6.503901   -0.664903   -1.542494
     53          1    20001029        3.714056    1.471564   -0.280950
     54          1    20001034        6.066323    3.991408   -0.965392
     55          1    20001034        5.080842    3.686460    0.460063
     56          1    20001034        4.345220    3.611678   -1.137893
     57          1    20001029        6.597382   -2.017665    0.490881
     58          1    20001035        7.466323   -2.637296    2.534680
     59          1    20001035        6.328185   -1.576483    3.358966
     60          1    20001035        7.767090   -0.898214    2.614300
     61          1    20001029       -5.844547   -1.845028    0.473299
     62          1    20001034       -8.537820   -0.553404    2.333630
     63          1    20001034       -7.413507   -1.916842    2.237028
     64          1    20001034       -8.579395   -1.639239    0.951302
 ---------------------------------------------------------------------

 SCF Done:  E(RHF) =  -1295.62142305     A.U. after   14 cycles

 The electronic state is 1-A.
 Alpha  occ. eigenvalues --  -20.53709 -20.51985 -20.51961 -20.51720 -15.59682
 Alpha  occ. eigenvalues --  -15.58014 -15.57611 -15.57474 -11.36026 -11.34171
 Alpha  occ. eigenvalues --  -11.33966 -11.33803 -11.29133 -11.28538 -11.25156
 Alpha  occ. eigenvalues --  -11.24938 -11.24395 -11.24134 -11.23369 -11.22934
 Alpha  occ. eigenvalues --  -11.22894 -11.22861 -11.22378 -11.22359 -11.22183
 Alpha  occ. eigenvalues --  -11.21867 -11.21641 -11.20966  -1.40649  -1.39359
 Alpha  occ. eigenvalues --   -1.38816  -1.38091  -1.25511  -1.23503  -1.22713
 Alpha  occ. eigenvalues --   -1.22157  -1.10991  -1.09448  -1.07279  -1.04259
 Alpha  occ. eigenvalues --   -1.01252  -0.99374  -0.98593  -0.95584  -0.95275
 Alpha  occ. eigenvalues --   -0.94578  -0.92624  -0.87859  -0.86088  -0.82620
 Alpha  occ. eigenvalues --   -0.81057  -0.79471  -0.78880  -0.77262  -0.76710
 Alpha  occ. eigenvalues --   -0.71914  -0.71288  -0.71104  -0.69023  -0.68229
 Alpha  occ. eigenvalues --   -0.66671  -0.65926  -0.65272  -0.64170  -0.63622
 Alpha  occ. eigenvalues --   -0.62926  -0.62545  -0.62182  -0.61418  -0.61127
 Alpha  occ. eigenvalues --   -0.60813  -0.59974  -0.59199  -0.58942  -0.58416
 Alpha  occ. eigenvalues --   -0.58292  -0.58031  -0.56910  -0.56783  -0.55978
 Alpha  occ. eigenvalues --   -0.55450  -0.55181  -0.54594  -0.54220  -0.54131
 Alpha  occ. eigenvalues --   -0.53222  -0.52956  -0.52849  -0.52232  -0.51170
 Alpha  occ. eigenvalues --   -0.50898  -0.50348  -0.49802  -0.49253  -0.48778
 Alpha  occ. eigenvalues --   -0.48423  -0.47132  -0.46983  -0.44642  -0.42945
 Alpha  occ. eigenvalues --   -0.42038  -0.41570  -0.40983  -0.39376  -0.38867
 Alpha  occ. eigenvalues --   -0.38404  -0.38383  -0.34726
 Alpha virt. eigenvalues --    0.17230   0.18743   0.19696   0.19911   0.20135
 Alpha virt. eigenvalues --    0.21274   0.22006   0.23068   0.23405   0.23695
 Alpha virt. eigenvalues --    0.25185   0.25268   0.26292   0.26890   0.27578

 Mulliken atomic charges:
              1
     1  C   -0.279813
     2  N   -0.783330
     3  C    0.821821
     4  O   -0.629173
     5  C    0.102438
     6  C   -0.472714
     7  C   -0.334611
     8  C   -0.311366
     9  C   -0.373089
    10  C   -0.181371
    11  C   -0.179841
    12  C   -0.351536
    13  C   -0.299644
    14  C   -0.344560
    15  C    0.099926
    16  C   -0.514694
    17  N   -0.785142
    18  C    0.767010
    19  C   -0.594494
    20  O   -0.614590
    21  C    0.812687
    22  O   -0.635246
    23  N   -0.804712
    24  C   -0.274977
    25  N   -0.843012
    26  C    0.744566
    27  C   -0.588763
    28  O   -0.591720
    29  H    0.187182
    30  H    0.196999
    31  H    0.164235
    32  H    0.391855
    33  H    0.198072
    34  H    0.144302
    35  H    0.212877
    36  H    0.161830
    37  H    0.183158
    38  H    0.164755
    39  H    0.179395
    40  H    0.213035
    41  H    0.170146
    42  H    0.183247
    43  H    0.176559
    44  H    0.176153
    45  H    0.164852
    46  H    0.167211
    47  H    0.168389
    48  H    0.174258
    49  H    0.192419
    50  H    0.188669
    51  H    0.145847
    52  H    0.225545
    53  H    0.385931
    54  H    0.210724
    55  H    0.209384
    56  H    0.178574
    57  H    0.395595
    58  H    0.164326
    59  H    0.198065
    60  H    0.185747
    61  H    0.382798
    62  H    0.218949
    63  H    0.177570
    64  H    0.201298
 Sum of Mulliken atomic charges =   0.00000

 Dipole moment (field-independent basis, Debye):
    X=             -2.5611    Y=             -7.3913    Z=              0.8239  Tot=              7.8657
 Quadrupole moment (field-independent basis, Debye-Ang):
   XX=           -191.3834   YY=           -165.5926   ZZ=           -169.5412
   XY=             14.4943   XZ=            -13.6935   YZ=              0.0688

 Normal termination of Gaussian 09 at Thu Dec  5 19:18:05 2019.
