 Gaussian 09, Revision A.02,
 Gaussian 09:  EM64L-G09RevA.02 11-Jun-2009

 ---------------------------------
 #SP HF/6-31G* Geom=(ModRedundant)
 ---------------------------------

 ------------
 paramfit run
 ------------
 Symbolic Z-matrix:
 Charge =  0 Multiplicity = 1

                         Standard orientation:
 ---------------------------------------------------------------------
 Center     Atomic      Atomic             Coordinates (Angstroms)
 Number     Number       Type             X           Y           Z
 ---------------------------------------------------------------------
      1          6    20001001        3.516230    2.305064    1.911549
      2          7    20001014        3.960656    1.440255    0.838313
      3          6    20001002        4.277770    0.150298    1.098233
      4          8    20001024        3.999668   -0.386375    2.134759
      5          6    90000001        4.898342   -0.648392   -0.062099
      6          6    90000002        5.611754   -1.886517    0.491012
      7          6    90000002        3.801311   -1.036641   -1.090393
      8          6    90000002        2.625914   -1.918423   -0.631550
      9          6    90000002        1.444704   -1.224517    0.075470
     10          6    20001004        0.804085   -0.122749   -0.735698
     11          6    20001004       -0.292005   -0.197515   -1.473094
     12          6    90000002       -1.173952   -1.404187   -1.687250
     13          6    90000002       -2.478997   -1.388070   -0.871062
     14          6    90000002       -3.378574   -0.193586   -1.215857
     15          6    90000002       -4.800376   -0.150573   -0.598384
     16          6    90000002       -5.788183   -0.635387   -1.671996
     17          7    20001014       -4.838903   -1.057079    0.541044
     18          6    20001002       -5.923237   -1.117660    1.367850
     19          6    20001001       -5.676735   -1.800699    2.693557
     20          8    20001024       -6.994193   -0.665543    1.071565
     21          6    20001002       -5.070909    1.282382   -0.086352
     22          8    20001024       -4.675812    1.623845    0.995882
     23          7    20001014       -5.667748    2.144840   -0.937192
     24          6    20001001       -5.996198    3.487479   -0.504011
     25          7    20001014        5.837207    0.192484   -0.818995
     26          6    20001002        6.944753    0.770850   -0.272636
     27          6    20001001        7.957948    1.290150   -1.271576
     28          8    20001024        7.103177    0.873832    0.910764
     29          1    20001035        4.301746    2.484096    2.636711
     30          1    20001035        2.676416    1.854147    2.419594
     31          1    20001035        3.202040    3.250006    1.486432
     32          1    20001029        4.427212    1.866836    0.072389
     33          1    20001034        4.937421   -2.501458    1.067254
     34          1    20001034        6.009678   -2.472071   -0.332408
     35          1    20001034        6.424327   -1.594099    1.139968
     36          1    20001034        4.318179   -1.577875   -1.879782
     37          1    20001034        3.418610   -0.128207   -1.544890
     38          1    20001034        2.235008   -2.398219   -1.524078
     39          1    20001034        2.988752   -2.718108    0.005809
     40          1    20001034        1.766373   -0.821996    1.027242
     41          1    20001034        0.714481   -1.992074    0.306693
     42          1    20001033        1.308289    0.829219   -0.695097
     43          1    20001033       -0.605555    0.700128   -1.982688
     44          1    20001034       -0.634245   -2.311886   -1.445866
     45          1    20001034       -1.419103   -1.469937   -2.746576
     46          1    20001034       -2.995217   -2.326255   -1.054643
     47          1    20001034       -2.240490   -1.381045    0.184350
     48          1    20001034       -3.507872   -0.138524   -2.294646
     49          1    20001034       -2.873795    0.717566   -0.916941
     50          1    20001034       -5.581053   -1.676807   -1.889069
     51          1    20001034       -5.667287   -0.080542   -2.596611
     52          1    20001034       -6.811479   -0.558354   -1.336331
     53          1    20001029       -3.965241   -1.212701    0.989606
     54          1    20001034       -6.619921   -2.130484    3.101853
     55          1    20001034       -5.234092   -1.081528    3.376188
     56          1    20001034       -5.001498   -2.644190    2.598896
     57          1    20001029       -6.182850    1.775143   -1.700934
     58          1    20001035       -6.351128    4.048982   -1.358212
     59          1    20001035       -5.114308    3.968901   -0.107616
     60          1    20001035       -6.761450    3.486478    0.265496
     61          1    20001029        5.860486    0.032779   -1.801593
     62          1    20001034        8.566636    2.042963   -0.792259
     63          1    20001034        7.487165    1.708211   -2.154264
     64          1    20001034        8.600696    0.473488   -1.584211
 ---------------------------------------------------------------------

 SCF Done:  E(RHF) =  -1295.61392188     A.U. after   14 cycles

 The electronic state is 1-A.
 Alpha  occ. eigenvalues --  -20.53665 -20.51902 -20.51871 -20.51554 -15.59638
 Alpha  occ. eigenvalues --  -15.57976 -15.57513 -15.57297 -11.35985 -11.34068
 Alpha  occ. eigenvalues --  -11.33881 -11.33692 -11.29081 -11.28448 -11.25100
 Alpha  occ. eigenvalues --  -11.24790 -11.24366 -11.24099 -11.23317 -11.23228
 Alpha  occ. eigenvalues --  -11.22981 -11.22861 -11.22347 -11.22325 -11.22149
 Alpha  occ. eigenvalues --  -11.21816 -11.21731 -11.20921  -1.40602  -1.39265
 Alpha  occ. eigenvalues --   -1.38728  -1.37994  -1.25461  -1.23501  -1.22653
 Alpha  occ. eigenvalues --   -1.22062  -1.10957  -1.09373  -1.07232  -1.04391
 Alpha  occ. eigenvalues --   -1.01324  -0.99331  -0.98703  -0.95471  -0.95255
 Alpha  occ. eigenvalues --   -0.94627  -0.92451  -0.87676  -0.85991  -0.82773
 Alpha  occ. eigenvalues --   -0.81535  -0.79438  -0.78796  -0.77173  -0.76494
 Alpha  occ. eigenvalues --   -0.71836  -0.71543  -0.71200  -0.68991  -0.68172
 Alpha  occ. eigenvalues --   -0.66673  -0.65870  -0.64936  -0.64130  -0.63304
 Alpha  occ. eigenvalues --   -0.62940  -0.62554  -0.62259  -0.61293  -0.61054
 Alpha  occ. eigenvalues --   -0.60754  -0.59898  -0.59222  -0.58775  -0.58473
 Alpha  occ. eigenvalues --   -0.58266  -0.57638  -0.57209  -0.56610  -0.55979
 Alpha  occ. eigenvalues --   -0.55359  -0.55064  -0.54778  -0.54454  -0.53958
 Alpha  occ. eigenvalues --   -0.53226  -0.52921  -0.52808  -0.52160  -0.51139
 Alpha  occ. eigenvalues --   -0.50850  -0.50456  -0.49779  -0.49343  -0.48726
 Alpha  occ. eigenvalues --   -0.48538  -0.47068  -0.46766  -0.44766  -0.42897
 Alpha  occ. eigenvalues --   -0.41978  -0.41481  -0.40891  -0.39310  -0.38747
 Alpha  occ. eigenvalues --   -0.38306  -0.38274  -0.34677
 Alpha virt. eigenvalues --    0.17269   0.18784   0.19842   0.19960   0.20196
 Alpha virt. eigenvalues --    0.21685   0.21966   0.23044   0.23283   0.23860
 Alpha virt. eigenvalues --    0.24987   0.25333   0.26253   0.26803   0.27621

 Mulliken atomic charges:
              1
     1  C   -0.280242
     2  N   -0.783368
     3  C    0.821696
     4  O   -0.628809
     5  C    0.102530
     6  C   -0.472690
     7  C   -0.334431
     8  C   -0.311548
     9  C   -0.373007
    10  C   -0.178299
    11  C   -0.177251
    12  C   -0.351149
    13  C   -0.315420
    14  C   -0.354257
    15  C    0.138323
    16  C   -0.513220
    17  N   -0.807001
    18  C    0.772743
    19  C   -0.595623
    20  O   -0.615000
    21  C    0.792779
    22  O   -0.632716
    23  N   -0.802001
    24  C   -0.274718
    25  N   -0.842980
    26  C    0.744608
    27  C   -0.588733
    28  O   -0.591518
    29  H    0.186762
    30  H    0.199184
    31  H    0.163939
    32  H    0.391422
    33  H    0.198087
    34  H    0.144026
    35  H    0.212919
    36  H    0.161555
    37  H    0.182918
    38  H    0.164165
    39  H    0.179314
    40  H    0.214898
    41  H    0.168697
    42  H    0.183758
    43  H    0.174526
    44  H    0.176358
    45  H    0.166462
    46  H    0.175514
    47  H    0.161685
    48  H    0.172451
    49  H    0.202310
    50  H    0.183841
    51  H    0.146713
    52  H    0.223936
    53  H    0.394622
    54  H    0.210476
    55  H    0.210338
    56  H    0.176695
    57  H    0.395502
    58  H    0.163947
    59  H    0.198241
    60  H    0.185989
    61  H    0.382584
    62  H    0.218920
    63  H    0.177359
    64  H    0.201188
 Sum of Mulliken atomic charges =   0.00000

 Dipole moment (field-independent basis, Debye):
    X=              2.5647    Y=              0.0957    Z=             -8.1740  Tot=              8.5675
 Quadrupole moment (field-independent basis, Debye-Ang):
   XX=           -189.5799   YY=           -159.7874   ZZ=           -172.1837
   XY=              2.9135   XZ=            -17.7904   YZ=             -6.8181

 Normal termination of Gaussian 09 at Thu Dec  5 19:55:16 2019.
