 Gaussian 09, Revision A.02,
 Gaussian 09:  EM64L-G09RevA.02 11-Jun-2009

 ---------------------------------
 #SP HF/6-31G* Geom=(ModRedundant)
 ---------------------------------

 ------------
 paramfit run
 ------------
 Symbolic Z-matrix:
 Charge =  0 Multiplicity = 1

                         Standard orientation:
 ---------------------------------------------------------------------
 Center     Atomic      Atomic             Coordinates (Angstroms)
 Number     Number       Type             X           Y           Z
 ---------------------------------------------------------------------
      1          6    20001001       -3.722264    2.935426    0.170759
      2          7    20001014       -4.087410    1.546388    0.356465
      3          6    20001002       -4.297811    0.753954   -0.720516
      4          8    20001024       -3.981893    1.078056   -1.831777
      5          6    90000001       -4.843497   -0.656796   -0.435215
      6          6    90000002       -5.454754   -1.238834   -1.714058
      7          6    90000002       -3.712330   -1.565362    0.118475
      8          6    90000002       -2.470373   -1.826708   -0.752661
      9          6    90000002       -1.354777   -0.762741   -0.745165
     10          6    20001004       -0.803310   -0.459905    0.628317
     11          6    20001004        0.299285   -0.941778    1.178624
     12          6    90000002        1.279513   -1.915435    0.569610
     13          6    90000002        2.574162   -1.267491    0.046525
     14          6    90000002        3.373402   -0.564692    1.152058
     15          6    90000002        4.783275   -0.023650    0.799671
     16          6    90000002        5.461693    0.396393    2.113735
     17          7    20001014        5.549728   -1.095539    0.179079
     18          6    20001002        6.780127   -0.868898   -0.366641
     19          6    20001001        7.277050   -1.955729   -1.292206
     20          8    20001024        7.424488    0.115838   -0.133757
     21          6    20001002        4.628337    1.119140   -0.229284
     22          8    20001024        4.517427    0.869940   -1.399552
     23          7    20001014        4.520784    2.377319    0.249673
     24          6    20001001        4.424419    3.499185   -0.661552
     25          7    20001014       -5.844690   -0.611478    0.640419
     26          6    20001002       -6.999435    0.110475    0.569572
     27          6    20001001       -8.046666   -0.248729    1.603205
     28          8    20001024       -7.172434    0.975251   -0.241829
     29          1    20001035       -4.523947    3.505782   -0.284156
     30          1    20001035       -2.850761    3.001980   -0.463888
     31          1    20001035       -3.485225    3.362672    1.137002
     32          1    20001029       -4.583496    1.311992    1.184259
     33          1    20001034       -4.734923   -1.257426   -2.518068
     34          1    20001034       -5.798125   -2.250990   -1.522032
     35          1    20001034       -6.292386   -0.638437   -2.037819
     36          1    20001034       -4.178100   -2.529701    0.309077
     37          1    20001034       -3.403824   -1.180327    1.085352
     38          1    20001034       -2.036042   -2.756651   -0.397441
     39          1    20001034       -2.769127   -2.007051   -1.780083
     40          1    20001034       -1.714028    0.154963   -1.192516
     41          1    20001034       -0.564667   -1.122867   -1.394680
     42          1    20001033       -1.385001    0.233967    1.213373
     43          1    20001033        0.540081   -0.606380    2.175262
     44          1    20001034        0.815669   -2.454090   -0.247804
     45          1    20001034        1.535159   -2.663418    1.319118
     46          1    20001034        3.167477   -2.047047   -0.423202
     47          1    20001034        2.330032   -0.564851   -0.739305
     48          1    20001034        3.503678   -1.244613    1.991266
     49          1    20001034        2.793091    0.273666    1.519135
     50          1    20001034        5.617024   -0.487157    2.721842
     51          1    20001034        4.833193    1.074916    2.681163
     52          1    20001034        6.422162    0.856919    1.937227
     53          1    20001029        5.010084   -1.788886   -0.286503
     54          1    20001034        8.351433   -1.888547   -1.371259
     55          1    20001034        6.844838   -1.796939   -2.275620
     56          1    20001034        6.994318   -2.945019   -0.949060
     57          1    20001029        4.852016    2.563989    1.166597
     58          1    20001035        4.225293    4.394517   -0.087399
     59          1    20001035        3.612195    3.337292   -1.354885
     60          1    20001035        5.338579    3.635766   -1.230244
     61          1    20001029       -5.849172   -1.394066    1.256117
     62          1    20001034       -8.718388    0.588454    1.725220
     63          1    20001034       -7.607305   -0.507394    2.560078
     64          1    20001034       -8.617670   -1.101470    1.250235
 ---------------------------------------------------------------------

 SCF Done:  E(RHF) =  -1295.62094686     A.U. after   14 cycles

 The electronic state is 1-A.
 Alpha  occ. eigenvalues --  -20.53651 -20.51976 -20.51842 -20.51598 -15.59612
 Alpha  occ. eigenvalues --  -15.57872 -15.57530 -15.57373 -11.35970 -11.34179
 Alpha  occ. eigenvalues --  -11.33856 -11.33653 -11.29030 -11.28550 -11.24968
 Alpha  occ. eigenvalues --  -11.24883 -11.24362 -11.24016 -11.23423 -11.22716
 Alpha  occ. eigenvalues --  -11.22684 -11.22580 -11.22459 -11.22266 -11.22062
 Alpha  occ. eigenvalues --  -11.21817 -11.21611 -11.20856  -1.40587  -1.39315
 Alpha  occ. eigenvalues --   -1.38700  -1.38043  -1.25435  -1.23499  -1.22590
 Alpha  occ. eigenvalues --   -1.22076  -1.10800  -1.09271  -1.07190  -1.04279
 Alpha  occ. eigenvalues --   -1.01267  -0.99313  -0.98743  -0.95510  -0.95143
 Alpha  occ. eigenvalues --   -0.94585  -0.92224  -0.87310  -0.85733  -0.82845
 Alpha  occ. eigenvalues --   -0.81378  -0.79499  -0.78809  -0.77177  -0.76839
 Alpha  occ. eigenvalues --   -0.71923  -0.71315  -0.71122  -0.68954  -0.67992
 Alpha  occ. eigenvalues --   -0.66725  -0.65851  -0.64435  -0.63954  -0.63727
 Alpha  occ. eigenvalues --   -0.62583  -0.62328  -0.61909  -0.61350  -0.61094
 Alpha  occ. eigenvalues --   -0.60910  -0.59897  -0.59289  -0.58718  -0.58387
 Alpha  occ. eigenvalues --   -0.58280  -0.57868  -0.56554  -0.56472  -0.56107
 Alpha  occ. eigenvalues --   -0.55573  -0.54859  -0.54814  -0.54538  -0.53987
 Alpha  occ. eigenvalues --   -0.53110  -0.52814  -0.52446  -0.52131  -0.51683
 Alpha  occ. eigenvalues --   -0.51033  -0.50289  -0.49740  -0.49264  -0.48641
 Alpha  occ. eigenvalues --   -0.48450  -0.46940  -0.46404  -0.44600  -0.42870
 Alpha  occ. eigenvalues --   -0.41942  -0.41501  -0.41008  -0.39286  -0.38805
 Alpha  occ. eigenvalues --   -0.38312  -0.38211  -0.34558
 Alpha virt. eigenvalues --    0.17313   0.18798   0.19798   0.19993   0.20237
 Alpha virt. eigenvalues --    0.21584   0.22268   0.23048   0.23255   0.23961
 Alpha virt. eigenvalues --    0.25342   0.25594   0.26643   0.27158   0.27724

 Mulliken atomic charges:
              1
     1  C   -0.279810
     2  N   -0.783466
     3  C    0.821784
     4  O   -0.627929
     5  C    0.102375
     6  C   -0.472800
     7  C   -0.334272
     8  C   -0.312018
     9  C   -0.373690
    10  C   -0.177912
    11  C   -0.177677
    12  C   -0.351538
    13  C   -0.315857
    14  C   -0.326212
    15  C    0.091300
    16  C   -0.510937
    17  N   -0.793918
    18  C    0.768323
    19  C   -0.596528
    20  O   -0.614398
    21  C    0.816597
    22  O   -0.636408
    23  N   -0.804854
    24  C   -0.275426
    25  N   -0.843071
    26  C    0.744563
    27  C   -0.588677
    28  O   -0.591680
    29  H    0.187003
    30  H    0.198777
    31  H    0.162168
    32  H    0.391256
    33  H    0.198948
    34  H    0.144022
    35  H    0.212604
    36  H    0.161357
    37  H    0.182100
    38  H    0.164166
    39  H    0.179923
    40  H    0.214303
    41  H    0.174606
    42  H    0.180982
    43  H    0.170073
    44  H    0.176542
    45  H    0.161899
    46  H    0.141172
    47  H    0.206022
    48  H    0.172877
    49  H    0.187354
    50  H    0.183699
    51  H    0.148237
    52  H    0.226843
    53  H    0.396281
    54  H    0.211054
    55  H    0.209541
    56  H    0.176010
    57  H    0.395093
    58  H    0.164282
    59  H    0.200164
    60  H    0.185041
    61  H    0.382574
    62  H    0.218654
    63  H    0.177160
    64  H    0.201351
 Sum of Mulliken atomic charges =   0.00000

 Dipole moment (field-independent basis, Debye):
    X=             -2.7920    Y=             -3.8813    Z=              7.0007  Tot=              8.4776
 Quadrupole moment (field-independent basis, Debye-Ang):
   XX=           -193.6442   YY=           -154.8579   ZZ=           -174.0631
   XY=             12.0586   XZ=            -19.6490   YZ=             10.9542

 Normal termination of Gaussian 09 at Thu Dec  5 19:20:04 2019.
