 Gaussian 09, Revision A.02,
 Gaussian 09:  EM64L-G09RevA.02 11-Jun-2009

 ---------------------------------
 #SP HF/6-31G* Geom=(ModRedundant)
 ---------------------------------

 ------------
 paramfit run
 ------------
 Symbolic Z-matrix:
 Charge =  0 Multiplicity = 1

                         Standard orientation:
 ---------------------------------------------------------------------
 Center     Atomic      Atomic             Coordinates (Angstroms)
 Number     Number       Type             X           Y           Z
 ---------------------------------------------------------------------
      1          6    20001001        3.536418    1.246504    2.729381
      2          7    20001014        3.976342    0.949398    1.381998
      3          6    20001002        4.320787   -0.316278    1.048036
      4          8    20001024        4.071119   -1.258875    1.747266
      5          6    90000001        4.934048   -0.511647   -0.350223
      6          6    90000002        5.679100   -1.849602   -0.401360
      7          6    90000002        3.825446   -0.436750   -1.435117
      8          6    90000002        2.674306   -1.458110   -1.398534
      9          6    90000002        1.494164   -1.171899   -0.448805
     10          6    20001004        0.819574    0.158151   -0.690000
     11          6    20001004       -0.288297    0.387547   -1.376115
     12          6    90000002       -1.152639   -0.624350   -2.089368
     13          6    90000002       -2.442664   -0.998092   -1.337225
     14          6    90000002       -3.369253    0.205046   -1.116306
     15          6    90000002       -4.780094   -0.060341   -0.530010
     16          6    90000002       -5.676860   -0.548089   -1.679516
     17          7    20001014       -4.674005   -1.105119    0.479304
     18          6    20001002       -5.735309   -1.446291    1.266891
     19          6    20001001       -5.383735   -2.252111    2.496465
     20          8    20001024       -6.864564   -1.134126    1.009056
     21          6    20001002       -5.276680    1.230520    0.159775
     22          8    20001024       -4.942080    1.482992    1.285932
     23          7    20001014       -6.003130    2.093120   -0.583310
     24          6    20001001       -6.542385    3.296951    0.015184
     25          7    20001014        5.844015    0.597743   -0.670605
     26          6    20001002        6.950995    0.904881    0.064197
     27          6    20001001        7.936512    1.832911   -0.615242
     28          8    20001024        7.129140    0.483357    1.171771
     29          1    20001035        4.331759    1.108788    3.452857
     30          1    20001035        2.714073    0.598884    2.995952
     31          1    20001035        3.197953    2.274421    2.763728
     32          1    20001029        4.421275    1.679107    0.876188
     33          1    20001034        5.026311   -2.670559   -0.146746
     34          1    20001034        6.072180   -2.006127   -1.401473
     35          1    20001034        6.498103   -1.851407    0.303024
     36          1    20001034        4.337272   -0.565499   -2.386262
     37          1    20001034        3.418598    0.569579   -1.442573
     38          1    20001034        2.275689   -1.508106   -2.407604
     39          1    20001034        3.062720   -2.447184   -1.178894
     40          1    20001034        1.826007   -1.218936    0.580287
     41          1    20001034        0.781895   -1.980384   -0.570702
     42          1    20001033        1.307610    1.008063   -0.241020
     43          1    20001033       -0.626831    1.409933   -1.438430
     44          1    20001034       -0.592736   -1.533022   -2.274540
     45          1    20001034       -1.415875   -0.225718   -3.068344
     46          1    20001034       -2.945561   -1.773332   -1.908601
     47          1    20001034       -2.185108   -1.447953   -0.387425
     48          1    20001034       -3.519153    0.723544   -2.060883
     49          1    20001034       -2.875213    0.905245   -0.452983
     50          1    20001034       -5.305691   -1.505232   -2.026924
     51          1    20001034       -5.645562    0.137072   -2.520322
     52          1    20001034       -6.699554   -0.679528   -1.359266
     53          1    20001029       -3.787033   -1.178747    0.922669
     54          1    20001034       -6.262346   -2.778546    2.837009
     55          1    20001034       -5.062305   -1.569343    3.277256
     56          1    20001034       -4.582229   -2.957772    2.306697
     57          1    20001029       -6.451913    1.751586   -1.400168
     58          1    20001035       -6.981909    3.903876   -0.765446
     59          1    20001035       -5.749129    3.854826    0.490731
     60          1    20001035       -7.298202    3.072243    0.760840
     61          1    20001029        5.852175    0.884735   -1.624081
     62          1    20001034        8.540503    2.314315    0.140018
     63          1    20001034        7.442427    2.583748   -1.221603
     64          1    20001034        8.587718    1.250960   -1.259499
 ---------------------------------------------------------------------

 SCF Done:  E(RHF) =  -1295.61911297     A.U. after   14 cycles

 The electronic state is 1-A.
 Alpha  occ. eigenvalues --  -20.53686 -20.51968 -20.51918 -20.51646 -15.59660
 Alpha  occ. eigenvalues --  -15.58018 -15.57560 -15.57425 -11.36005 -11.34140
 Alpha  occ. eigenvalues --  -11.33925 -11.33771 -11.29108 -11.28499 -11.25139
 Alpha  occ. eigenvalues --  -11.24857 -11.24379 -11.24119 -11.23275 -11.23134
 Alpha  occ. eigenvalues --  -11.22919 -11.22883 -11.22362 -11.22343 -11.22166
 Alpha  occ. eigenvalues --  -11.21852 -11.21676 -11.20946  -1.40625  -1.39330
 Alpha  occ. eigenvalues --   -1.38774  -1.38060  -1.25486  -1.23512  -1.22698
 Alpha  occ. eigenvalues --   -1.22108  -1.10971  -1.09402  -1.07251  -1.04326
 Alpha  occ. eigenvalues --   -1.01285  -0.99350  -0.98655  -0.95523  -0.95268
 Alpha  occ. eigenvalues --   -0.94596  -0.92524  -0.87748  -0.86028  -0.82672
 Alpha  occ. eigenvalues --   -0.81288  -0.79477  -0.78849  -0.77216  -0.76622
 Alpha  occ. eigenvalues --   -0.71811  -0.71397  -0.71231  -0.69007  -0.68204
 Alpha  occ. eigenvalues --   -0.66669  -0.65898  -0.65152  -0.64150  -0.63395
 Alpha  occ. eigenvalues --   -0.62977  -0.62550  -0.62248  -0.61359  -0.61092
 Alpha  occ. eigenvalues --   -0.60755  -0.59928  -0.59189  -0.58858  -0.58440
 Alpha  occ. eigenvalues --   -0.58283  -0.57855  -0.57049  -0.56682  -0.55983
 Alpha  occ. eigenvalues --   -0.55409  -0.55124  -0.54558  -0.54505  -0.54055
 Alpha  occ. eigenvalues --   -0.53210  -0.52927  -0.52840  -0.52202  -0.51149
 Alpha  occ. eigenvalues --   -0.50831  -0.50384  -0.49816  -0.49312  -0.48740
 Alpha  occ. eigenvalues --   -0.48489  -0.47107  -0.46866  -0.44691  -0.42921
 Alpha  occ. eigenvalues --   -0.42009  -0.41529  -0.40958  -0.39344  -0.38808
 Alpha  occ. eigenvalues --   -0.38398  -0.38352  -0.34702
 Alpha virt. eigenvalues --    0.17237   0.18764   0.19623   0.19936   0.20162
 Alpha virt. eigenvalues --    0.21485   0.21890   0.22973   0.23288   0.23732
 Alpha virt. eigenvalues --    0.25134   0.25268   0.26138   0.26764   0.27665

 Mulliken atomic charges:
              1
     1  C   -0.280016
     2  N   -0.783321
     3  C    0.821771
     4  O   -0.629126
     5  C    0.102489
     6  C   -0.472694
     7  C   -0.334544
     8  C   -0.311385
     9  C   -0.373168
    10  C   -0.180230
    11  C   -0.178367
    12  C   -0.352611
    13  C   -0.296495
    14  C   -0.353197
    15  C    0.115181
    16  C   -0.510535
    17  N   -0.795467
    18  C    0.769324
    19  C   -0.594912
    20  O   -0.614518
    21  C    0.805540
    22  O   -0.634782
    23  N   -0.803621
    24  C   -0.275095
    25  N   -0.842987
    26  C    0.744596
    27  C   -0.588752
    28  O   -0.591620
    29  H    0.186935
    30  H    0.197945
    31  H    0.164347
    32  H    0.391669
    33  H    0.198023
    34  H    0.144177
    35  H    0.212903
    36  H    0.161709
    37  H    0.183106
    38  H    0.164536
    39  H    0.179331
    40  H    0.213781
    41  H    0.169241
    42  H    0.183770
    43  H    0.175834
    44  H    0.176388
    45  H    0.165510
    46  H    0.169604
    47  H    0.158835
    48  H    0.171653
    49  H    0.200287
    50  H    0.185290
    51  H    0.145996
    52  H    0.224753
    53  H    0.390308
    54  H    0.210591
    55  H    0.210051
    56  H    0.177800
    57  H    0.395511
    58  H    0.164204
    59  H    0.198155
    60  H    0.185942
    61  H    0.382694
    62  H    0.218950
    63  H    0.177481
    64  H    0.201230
 Sum of Mulliken atomic charges =   0.00000

 Dipole moment (field-independent basis, Debye):
    X=              2.5202    Y=              3.1368    Z=             -7.2005  Tot=              8.2485
 Quadrupole moment (field-independent basis, Debye-Ang):
   XX=           -189.6163   YY=           -162.9772   ZZ=           -170.8918
   XY=             12.5995   XZ=            -12.1567   YZ=             -2.2212

 Normal termination of Gaussian 09 at Thu Dec  5 20:05:17 2019.
