 Gaussian 09, Revision A.02,
 Gaussian 09:  EM64L-G09RevA.02 11-Jun-2009

 ---------------------------------
 #SP HF/6-31G* Geom=(ModRedundant)
 ---------------------------------

 ------------
 paramfit run
 ------------
 Symbolic Z-matrix:
 Charge =  0 Multiplicity = 1

                         Standard orientation:
 ---------------------------------------------------------------------
 Center     Atomic      Atomic             Coordinates (Angstroms)
 Number     Number       Type             X           Y           Z
 ---------------------------------------------------------------------
      1          6    20001001        3.854135    2.996154   -0.169282
      2          7    20001014        4.200248    1.606954   -0.387395
      3          6    20001002        4.534439    0.821600    0.663150
      4          8    20001024        4.346034    1.151620    1.801278
      5          6    90000001        5.048649   -0.589455    0.325662
      6          6    90000002        5.803389   -1.162171    1.529907
      7          6    90000002        3.864743   -1.504245   -0.090425
      8          6    90000002        2.730878   -1.763480    0.917932
      9          6    90000002        1.618253   -0.702430    1.031407
     10          6    20001004        0.913042   -0.409331   -0.272068
     11          6    20001004       -0.243471   -0.897344   -0.690492
     12          6    90000002       -1.144850   -1.869794    0.031734
     13          6    90000002       -2.373620   -1.222000    0.695100
     14          6    90000002       -3.295780   -0.527956   -0.316254
     15          6    90000002       -4.658112    0.011608    0.191257
     16          6    90000002       -4.753765   -0.306159    1.692365
     17          7    20001014       -4.686382    1.455028   -0.001796
     18          6    20001002       -5.819527    2.182398    0.221744
     19          6    20001001       -5.813031    3.571806   -0.373494
     20          8    20001024       -6.753896    1.757947    0.842985
     21          6    20001002       -5.783796   -0.613310   -0.663751
     22          8    20001024       -6.077261   -0.131654   -1.724794
     23          7    20001014       -6.337774   -1.762107   -0.219503
     24          6    20001001       -7.431916   -2.373183   -0.945893
     25          7    20001014        5.920734   -0.548098   -0.857212
     26          6    20001002        7.073701    0.177218   -0.922436
     27          6    20001001        7.997612   -0.185566   -2.066506
     28          8    20001024        7.335153    1.047334   -0.140975
     29          1    20001035        4.700549    3.571301    0.188123
     30          1    20001035        3.060334    3.064326    0.560071
     31          1    20001035        3.507264    3.416931   -1.104686
     32          1    20001029        4.599628    1.368814   -1.264931
     33          1    20001034        5.179829   -1.177729    2.410738
     34          1    20001034        6.125932   -2.174591    1.305837
     35          1    20001034        6.670491   -0.557685    1.752749
     36          1    20001034        4.308897   -2.468528   -0.327291
     37          1    20001034        3.446934   -1.125865   -1.018080
     38          1    20001034        2.261936   -2.696663    0.619807
     39          1    20001034        3.145230   -1.936831    1.905675
     40          1    20001034        2.023131    0.218882    1.429682
     41          1    20001034        0.908385   -1.060631    1.768708
     42          1    20001033        1.422107    0.282467   -0.923514
     43          1    20001033       -0.597238   -0.568607   -1.655138
     44          1    20001034       -0.589232   -2.402300    0.794094
     45          1    20001034       -1.481741   -2.622954   -0.679496
     46          1    20001034       -2.907086   -2.000209    1.233783
     47          1    20001034       -2.043889   -0.513992    1.443986
     48          1    20001034       -3.518548   -1.213280   -1.131264
     49          1    20001034       -2.763738    0.309642   -0.751812
     50          1    20001034       -3.988861    0.255930    2.215392
     51          1    20001034       -4.571553   -1.358565    1.883736
     52          1    20001034       -5.714234   -0.026710    2.098748
     53          1    20001029       -4.112257    1.796255   -0.738450
     54          1    20001034       -6.537570    4.181499    0.144560
     55          1    20001034       -6.100144    3.501825   -1.418382
     56          1    20001034       -4.834153    4.035496   -0.317175
     57          1    20001029       -6.248740   -1.988621    0.742824
     58          1    20001035       -7.647898   -3.335264   -0.500167
     59          1    20001035       -7.148474   -2.518636   -1.977945
     60          1    20001035       -8.325988   -1.758629   -0.919233
     61          1    20001029        5.857622   -1.334388   -1.464922
     62          1    20001034        8.648372    0.652575   -2.269000
     63          1    20001034        7.453015   -0.451145   -2.965635
     64          1    20001034        8.607835   -1.034692   -1.775963
 ---------------------------------------------------------------------

 SCF Done:  E(RHF) =  -1295.60853456     A.U. after   14 cycles

 The electronic state is 1-A.
 Alpha  occ. eigenvalues --  -20.53745 -20.52004 -20.51999 -20.51672 -15.59716
 Alpha  occ. eigenvalues --  -15.58019 -15.57674 -15.57542 -11.36062 -11.34179
 Alpha  occ. eigenvalues --  -11.34011 -11.33760 -11.29165 -11.28484 -11.25168
 Alpha  occ. eigenvalues --  -11.25032 -11.24428 -11.24158 -11.23432 -11.22910
 Alpha  occ. eigenvalues --  -11.22906 -11.22797 -11.22451 -11.22419 -11.22220
 Alpha  occ. eigenvalues --  -11.21872 -11.21457 -11.20991  -1.40686  -1.39367
 Alpha  occ. eigenvalues --   -1.38858  -1.38096  -1.25548  -1.23565  -1.22718
 Alpha  occ. eigenvalues --   -1.22218  -1.11096  -1.09606  -1.07353  -1.04158
 Alpha  occ. eigenvalues --   -1.01232  -0.99448  -0.98482  -0.95655  -0.95306
 Alpha  occ. eigenvalues --   -0.94564  -0.92856  -0.88172  -0.86255  -0.82609
 Alpha  occ. eigenvalues --   -0.81055  -0.79350  -0.78541  -0.77317  -0.76951
 Alpha  occ. eigenvalues --   -0.72014  -0.71373  -0.71194  -0.69032  -0.68382
 Alpha  occ. eigenvalues --   -0.66615  -0.65961  -0.65123  -0.64206  -0.63998
 Alpha  occ. eigenvalues --   -0.62918  -0.62570  -0.61826  -0.61648  -0.61207
 Alpha  occ. eigenvalues --   -0.61161  -0.60089  -0.59620  -0.59087  -0.58429
 Alpha  occ. eigenvalues --   -0.58260  -0.58194  -0.56925  -0.56323  -0.56051
 Alpha  occ. eigenvalues --   -0.55800  -0.54997  -0.54698  -0.54494  -0.54103
 Alpha  occ. eigenvalues --   -0.53134  -0.52907  -0.52433  -0.52184  -0.51219
 Alpha  occ. eigenvalues --   -0.51053  -0.50406  -0.49876  -0.49206  -0.48629
 Alpha  occ. eigenvalues --   -0.48071  -0.47221  -0.47096  -0.44665  -0.42980
 Alpha  occ. eigenvalues --   -0.42073  -0.41622  -0.40912  -0.39416  -0.38897
 Alpha  occ. eigenvalues --   -0.38463  -0.38387  -0.34747
 Alpha virt. eigenvalues --    0.17148   0.18707   0.19873   0.19965   0.20190
 Alpha virt. eigenvalues --    0.21563   0.22019   0.22822   0.23085   0.23837
 Alpha virt. eigenvalues --    0.25157   0.25217   0.25655   0.26397   0.27380

 Mulliken atomic charges:
              1
     1  C   -0.279726
     2  N   -0.783467
     3  C    0.821839
     4  O   -0.628780
     5  C    0.102362
     6  C   -0.472747
     7  C   -0.334556
     8  C   -0.311621
     9  C   -0.372680
    10  C   -0.180404
    11  C   -0.178995
    12  C   -0.349470
    13  C   -0.311014
    14  C   -0.347380
    15  C    0.140182
    16  C   -0.521774
    17  N   -0.794227
    18  C    0.766655
    19  C   -0.594684
    20  O   -0.613322
    21  C    0.786985
    22  O   -0.632756
    23  N   -0.802204
    24  C   -0.274280
    25  N   -0.843087
    26  C    0.744484
    27  C   -0.588749
    28  O   -0.591781
    29  H    0.187454
    30  H    0.197390
    31  H    0.162896
    32  H    0.391782
    33  H    0.198205
    34  H    0.144413
    35  H    0.212856
    36  H    0.162005
    37  H    0.182897
    38  H    0.164922
    39  H    0.179407
    40  H    0.213283
    41  H    0.170710
    42  H    0.181578
    43  H    0.173680
    44  H    0.175197
    45  H    0.167291
    46  H    0.164782
    47  H    0.176975
    48  H    0.190202
    49  H    0.175068
    50  H    0.188528
    51  H    0.147755
    52  H    0.228524
    53  H    0.384815
    54  H    0.211258
    55  H    0.208642
    56  H    0.177598
    57  H    0.396473
    58  H    0.164377
    59  H    0.197504
    60  H    0.185939
    61  H    0.382897
    62  H    0.218878
    63  H    0.177552
    64  H    0.201461
 Sum of Mulliken atomic charges =   0.00000

 Dipole moment (field-independent basis, Debye):
    X=              3.0396    Y=             -4.4660    Z=             -4.0418  Tot=              6.7469
 Quadrupole moment (field-independent basis, Debye-Ang):
   XX=           -203.4539   YY=           -157.1511   ZZ=           -176.3445
   XY=             -6.7377   XZ=            -33.6812   YZ=            -10.1243

 Normal termination of Gaussian 09 at Thu Dec  5 19:47:50 2019.
