 Gaussian 09, Revision A.02,
 Gaussian 09:  EM64L-G09RevA.02 11-Jun-2009

 ---------------------------------
 #SP HF/6-31G* Geom=(ModRedundant)
 ---------------------------------

 ------------
 paramfit run
 ------------
 Symbolic Z-matrix:
 Charge =  0 Multiplicity = 1

                         Standard orientation:
 ---------------------------------------------------------------------
 Center     Atomic      Atomic             Coordinates (Angstroms)
 Number     Number       Type             X           Y           Z
 ---------------------------------------------------------------------
      1          6    20001001       -3.989095   -1.558205    2.615810
      2          7    20001014       -4.284743   -1.114654    1.269296
      3          6    20001002       -4.520603    0.195951    1.026823
      4          8    20001024       -4.280238    1.054307    1.830063
      5          6    90000001       -4.989961    0.554653   -0.394593
      6          6    90000002       -5.645672    1.939492   -0.384252
      7          6    90000002       -3.792835    0.500124   -1.382276
      8          6    90000002       -2.590823    1.433653   -1.151347
      9          6    90000002       -1.522227    0.985517   -0.134532
     10          6    20001004       -0.909215   -0.360992   -0.440157
     11          6    20001004        0.241284   -0.604046   -1.046817
     12          6    90000002        1.226571    0.405456   -1.585210
     13          6    90000002        2.462076    0.623071   -0.693169
     14          6    90000002        3.290701   -0.655047   -0.506868
     15          6    90000002        4.655044   -0.538763    0.220931
     16          6    90000002        4.446638   -0.993779    1.674540
     17          7    20001014        5.606956   -1.426049   -0.433376
     18          6    20001002        6.929832   -1.425507   -0.097140
     19          6    20001001        7.841870   -2.099802   -1.096299
     20          8    20001024        7.344743   -0.929665    0.913371
     21          6    20001002        5.167357    0.912218    0.076315
     22          8    20001024        5.756076    1.251021   -0.914922
     23          7    20001014        4.837541    1.788455    1.049665
     24          6    20001001        5.327625    3.150707    1.001806
     25          7    20001014       -5.931447   -0.457834   -0.894497
     26          6    20001002       -7.117672   -0.752331   -0.289671
     27          6    20001001       -8.090391   -1.547900   -1.135252
     28          8    20001024       -7.371278   -0.418597    0.833025
     29          1    20001035       -4.837873   -1.430803    3.277847
     30          1    20001035       -3.157417   -0.993944    3.011591
     31          1    20001035       -3.717403   -2.605797    2.582830
     32          1    20001029       -4.724217   -1.765151    0.661018
     33          1    20001034       -4.971044    2.688601    0.001295
     34          1    20001034       -5.935093    2.209639   -1.395436
     35          1    20001034       -6.524356    1.935111    0.244095
     36          1    20001034       -4.206450    0.746442   -2.357709
     37          1    20001034       -3.448037   -0.526992   -1.448814
     38          1    20001034       -2.098884    1.544872   -2.113243
     39          1    20001034       -2.937831    2.423727   -0.874375
     40          1    20001034       -1.943822    0.964430    0.862050
     41          1    20001034       -0.754625    1.751261   -0.118488
     42          1    20001033       -1.486477   -1.211891   -0.116349
     43          1    20001033        0.522259   -1.637653   -1.175151
     44          1    20001034        0.741494    1.362851   -1.732048
     45          1    20001034        1.554306    0.077389   -2.570885
     46          1    20001034        3.060885    1.409502   -1.144089
     47          1    20001034        2.145735    1.004228    0.268849
     48          1    20001034        3.495444   -1.097552   -1.479392
     49          1    20001034        2.696741   -1.375580    0.043037
     50          1    20001034        4.189193   -2.046539    1.674996
     51          1    20001034        3.625685   -0.458386    2.140126
     52          1    20001034        5.341612   -0.865634    2.264742
     53          1    20001029        5.422047   -1.614596   -1.392006
     54          1    20001034        8.760045   -2.380596   -0.603177
     55          1    20001034        8.073262   -1.391642   -1.886294
     56          1    20001034        7.381907   -2.974293   -1.543605
     57          1    20001029        4.573818    1.431484    1.937545
     58          1    20001035        4.856898    3.715322    1.795876
     59          1    20001035        5.071620    3.597358    0.052285
     60          1    20001035        6.405225    3.195481    1.122339
     61          1    20001029       -5.869126   -0.658735   -1.867791
     62          1    20001034       -8.788982   -2.051591   -0.483148
     63          1    20001034       -7.588540   -2.274427   -1.764421
     64          1    20001034       -8.643601   -0.868665   -1.775877
 ---------------------------------------------------------------------

 SCF Done:  E(RHF) =  -1295.61600103     A.U. after   14 cycles

 The electronic state is 1-A.
 Alpha  occ. eigenvalues --  -20.53724 -20.52089 -20.51974 -20.51646 -15.59687
 Alpha  occ. eigenvalues --  -15.57865 -15.57647 -15.57647 -11.36041 -11.34297
 Alpha  occ. eigenvalues --  -11.33980 -11.33694 -11.29124 -11.28519 -11.25078
 Alpha  occ. eigenvalues --  -11.25014 -11.24415 -11.24097 -11.23418 -11.22813
 Alpha  occ. eigenvalues --  -11.22570 -11.22560 -11.22401 -11.22297 -11.22094
 Alpha  occ. eigenvalues --  -11.21774 -11.21716 -11.20951  -1.40664  -1.39419
 Alpha  occ. eigenvalues --   -1.38830  -1.38143  -1.25518  -1.23629  -1.22655
 Alpha  occ. eigenvalues --   -1.22191  -1.10889  -1.09414  -1.07264  -1.04188
 Alpha  occ. eigenvalues --   -1.01255  -0.99426  -0.98620  -0.95629  -0.95215
 Alpha  occ. eigenvalues --   -0.94666  -0.92355  -0.87478  -0.85867  -0.83146
 Alpha  occ. eigenvalues --   -0.81803  -0.79271  -0.78212  -0.77290  -0.76825
 Alpha  occ. eigenvalues --   -0.71744  -0.71325  -0.71184  -0.69005  -0.68204
 Alpha  occ. eigenvalues --   -0.66625  -0.65928  -0.64978  -0.64117  -0.63684
 Alpha  occ. eigenvalues --   -0.63295  -0.62643  -0.62302  -0.61493  -0.61161
 Alpha  occ. eigenvalues --   -0.60705  -0.59994  -0.59455  -0.58697  -0.58634
 Alpha  occ. eigenvalues --   -0.58299  -0.57586  -0.57001  -0.56360  -0.55679
 Alpha  occ. eigenvalues --   -0.55331  -0.55025  -0.54831  -0.54615  -0.54019
 Alpha  occ. eigenvalues --   -0.53239  -0.52900  -0.52435  -0.52217  -0.51300
 Alpha  occ. eigenvalues --   -0.51100  -0.50555  -0.49827  -0.49314  -0.48518
 Alpha  occ. eigenvalues --   -0.48017  -0.47059  -0.46782  -0.44604  -0.42953
 Alpha  occ. eigenvalues --   -0.42041  -0.41643  -0.41032  -0.39387  -0.38900
 Alpha  occ. eigenvalues --   -0.38436  -0.38353  -0.34598
 Alpha virt. eigenvalues --    0.17290   0.18728   0.19902   0.19998   0.20186
 Alpha virt. eigenvalues --    0.21480   0.21826   0.22938   0.23157   0.23762
 Alpha virt. eigenvalues --    0.25210   0.25433   0.25952   0.27036   0.27210

 Mulliken atomic charges:
              1
     1  C   -0.279536
     2  N   -0.783323
     3  C    0.822030
     4  O   -0.629041
     5  C    0.102283
     6  C   -0.472713
     7  C   -0.334522
     8  C   -0.311609
     9  C   -0.372771
    10  C   -0.181487
    11  C   -0.177466
    12  C   -0.352667
    13  C   -0.323348
    14  C   -0.328866
    15  C    0.133238
    16  C   -0.516344
    17  N   -0.794199
    18  C    0.766812
    19  C   -0.594583
    20  O   -0.612884
    21  C    0.791778
    22  O   -0.637969
    23  N   -0.794765
    24  C   -0.274982
    25  N   -0.843091
    26  C    0.744517
    27  C   -0.588714
    28  O   -0.591871
    29  H    0.187230
    30  H    0.197155
    31  H    0.162963
    32  H    0.391673
    33  H    0.198290
    34  H    0.144529
    35  H    0.212613
    36  H    0.161975
    37  H    0.182611
    38  H    0.165727
    39  H    0.179247
    40  H    0.212160
    41  H    0.171627
    42  H    0.180754
    43  H    0.170743
    44  H    0.176573
    45  H    0.166124
    46  H    0.192704
    47  H    0.171052
    48  H    0.156409
    49  H    0.187711
    50  H    0.184406
    51  H    0.152034
    52  H    0.223587
    53  H    0.384412
    54  H    0.211455
    55  H    0.209216
    56  H    0.176637
    57  H    0.396216
    58  H    0.166206
    59  H    0.196137
    60  H    0.185412
    61  H    0.382855
    62  H    0.218749
    63  H    0.177396
    64  H    0.201504
 Sum of Mulliken atomic charges =   0.00000

 Dipole moment (field-independent basis, Debye):
    X=             -3.2509    Y=             -3.8500    Z=             -4.8774  Tot=              7.0129
 Quadrupole moment (field-independent basis, Debye-Ang):
   XX=           -204.8542   YY=           -161.1622   ZZ=           -169.6084
   XY=             10.0889   XZ=             26.5102   YZ=              4.8298

 Normal termination of Gaussian 09 at Thu Dec  5 19:40:27 2019.
