 Gaussian 09, Revision A.02,
 Gaussian 09:  EM64L-G09RevA.02 11-Jun-2009

 ---------------------------------
 #SP HF/6-31G* Geom=(ModRedundant)
 ---------------------------------

 ------------
 paramfit run
 ------------
 Symbolic Z-matrix:
 Charge =  0 Multiplicity = 1

                         Standard orientation:
 ---------------------------------------------------------------------
 Center     Atomic      Atomic             Coordinates (Angstroms)
 Number     Number       Type             X           Y           Z
 ---------------------------------------------------------------------
      1          6    20001001       -3.765586    2.899754    0.494706
      2          7    20001014       -4.116009    1.495117    0.532723
      3          6    20001002       -4.320077    0.818836   -0.621881
      4          8    20001024       -4.009474    1.261909   -1.692842
      5          6    90000001       -4.850630   -0.619812   -0.487008
      6          6    90000002       -5.458063   -1.069745   -1.819834
      7          6    90000002       -3.709153   -1.569925   -0.033226
      8          6    90000002       -2.466082   -1.724670   -0.927912
      9          6    90000002       -1.361548   -0.655828   -0.808667
     10          6    20001004       -0.810846   -0.494149    0.588783
     11          6    20001004        0.297639   -1.019926    1.084340
     12          6    90000002        1.286827   -1.913408    0.375151
     13          6    90000002        2.573783   -1.200258   -0.077317
     14          6    90000002        3.367636   -0.609953    1.095820
     15          6    90000002        4.771215   -0.019941    0.801715
     16          6    90000002        5.345007    0.498804    2.130292
     17          7    20001014        5.623192   -1.083676    0.287773
     18          6    20001002        6.874331   -0.825820   -0.193075
     19          6    20001001        7.477678   -1.933033   -1.026656
     20          8    20001024        7.457472    0.199531    0.025434
     21          6    20001002        4.630637    1.060140   -0.294819
     22          8    20001024        4.605765    0.746607   -1.454564
     23          7    20001014        4.436156    2.334388    0.108231
     24          6    20001001        4.347427    3.402426   -0.866255
     25          7    20001014       -5.850357   -0.698971    0.588032
     26          6    20001002       -7.012636    0.014286    0.594668
     27          6    20001001       -8.054285   -0.463146    1.585195
     28          8    20001024       -7.195996    0.958146   -0.120628
     29          1    20001035       -4.573925    3.506580    0.103170
     30          1    20001035       -2.895929    3.042166   -0.129905
     31          1    20001035       -3.531295    3.224903    1.500558
     32          1    20001029       -4.608194    1.169326    1.331408
     33          1    20001034       -4.739485   -0.995680   -2.621765
     34          1    20001034       -5.790602   -2.100073   -1.735694
     35          1    20001034       -6.302431   -0.447292   -2.077752
     36          1    20001034       -4.164581   -2.553838    0.054634
     37          1    20001034       -3.402960   -1.286067    0.968748
     38          1    20001034       -2.021527   -2.682356   -0.673299
     39          1    20001034       -2.764748   -1.798492   -1.968451
     40          1    20001034       -1.731061    0.300215   -1.156236
     41          1    20001034       -0.568889   -0.936962   -1.493129
     42          1    20001033       -1.398665    0.127840    1.244306
     43          1    20001033        0.536691   -0.789280    2.110701
     44          1    20001034        0.827156   -2.367447   -0.494341
     45          1    20001034        1.551512   -2.733725    1.041196
     46          1    20001034        3.174315   -1.919519   -0.627227
     47          1    20001034        2.321020   -0.421067   -0.784284
     48          1    20001034        3.506410   -1.373392    1.858341
     49          1    20001034        2.779320    0.178767    1.549864
     50          1    20001034        5.501052   -0.344084    2.793443
     51          1    20001034        4.651699    1.174116    2.620860
     52          1    20001034        6.292994    0.995698    1.988326
     53          1    20001029        5.146105   -1.825136   -0.171942
     54          1    20001034        8.550783   -1.818035   -1.043348
     55          1    20001034        7.102181   -1.845623   -2.041786
     56          1    20001034        7.218622   -2.916095   -0.648686
     57          1    20001029        4.699619    2.583314    1.032316
     58          1    20001035        4.071973    4.315138   -0.354392
     59          1    20001035        3.589095    3.166319   -1.598247
     60          1    20001035        5.288819    3.553968   -1.384493
     61          1    20001029       -5.845662   -1.542275    1.117526
     62          1    20001034       -8.734423    0.349359    1.795485
     63          1    20001034       -7.610598   -0.816915    2.509067
     64          1    20001034       -8.617047   -1.279723    1.144399
 ---------------------------------------------------------------------

 SCF Done:  E(RHF) =  -1295.62203555     A.U. after   14 cycles

 The electronic state is 1-A.
 Alpha  occ. eigenvalues --  -20.53652 -20.52026 -20.51851 -20.51579 -15.59611
 Alpha  occ. eigenvalues --  -15.57877 -15.57541 -15.57487 -11.35972 -11.34234
 Alpha  occ. eigenvalues --  -11.33864 -11.33659 -11.29029 -11.28555 -11.24957
 Alpha  occ. eigenvalues --  -11.24906 -11.24363 -11.24005 -11.23395 -11.22696
 Alpha  occ. eigenvalues --  -11.22572 -11.22498 -11.22385 -11.22231 -11.22027
 Alpha  occ. eigenvalues --  -11.21800 -11.21592 -11.20853  -1.40589  -1.39346
 Alpha  occ. eigenvalues --   -1.38709  -1.38069  -1.25436  -1.23529  -1.22591
 Alpha  occ. eigenvalues --   -1.22086  -1.10766  -1.09259  -1.07185  -1.04231
 Alpha  occ. eigenvalues --   -1.01237  -0.99318  -0.98733  -0.95525  -0.95126
 Alpha  occ. eigenvalues --   -0.94569  -0.92192  -0.87268  -0.85702  -0.82833
 Alpha  occ. eigenvalues --   -0.81340  -0.79487  -0.78776  -0.77186  -0.76856
 Alpha  occ. eigenvalues --   -0.71899  -0.71294  -0.71103  -0.68947  -0.67980
 Alpha  occ. eigenvalues --   -0.66710  -0.65853  -0.64507  -0.63949  -0.63708
 Alpha  occ. eigenvalues --   -0.62590  -0.62332  -0.61787  -0.61397  -0.61138
 Alpha  occ. eigenvalues --   -0.60918  -0.59899  -0.59326  -0.58712  -0.58419
 Alpha  occ. eigenvalues --   -0.58260  -0.57826  -0.56564  -0.56413  -0.56190
 Alpha  occ. eigenvalues --   -0.55506  -0.54848  -0.54750  -0.54559  -0.53958
 Alpha  occ. eigenvalues --   -0.53085  -0.52822  -0.52461  -0.52153  -0.51568
 Alpha  occ. eigenvalues --   -0.51032  -0.50299  -0.49759  -0.49262  -0.48559
 Alpha  occ. eigenvalues --   -0.48375  -0.46927  -0.46386  -0.44544  -0.42871
 Alpha  occ. eigenvalues --   -0.41944  -0.41490  -0.41045  -0.39290  -0.38817
 Alpha  occ. eigenvalues --   -0.38323  -0.38254  -0.34518
 Alpha virt. eigenvalues --    0.17326   0.18797   0.19689   0.19989   0.20234
 Alpha virt. eigenvalues --    0.21599   0.22044   0.23132   0.23254   0.23944
 Alpha virt. eigenvalues --    0.25310   0.25641   0.26570   0.27129   0.27666

 Mulliken atomic charges:
              1
     1  C   -0.279683
     2  N   -0.783416
     3  C    0.821868
     4  O   -0.628073
     5  C    0.102334
     6  C   -0.472795
     7  C   -0.334291
     8  C   -0.311940
     9  C   -0.373784
    10  C   -0.178800
    11  C   -0.177153
    12  C   -0.353170
    13  C   -0.311265
    14  C   -0.328149
    15  C    0.090185
    16  C   -0.509705
    17  N   -0.788546
    18  C    0.767485
    19  C   -0.595857
    20  O   -0.613979
    21  C    0.820007
    22  O   -0.638730
    23  N   -0.805728
    24  C   -0.275577
    25  N   -0.843076
    26  C    0.744560
    27  C   -0.588676
    28  O   -0.591747
    29  H    0.187017
    30  H    0.198385
    31  H    0.162159
    32  H    0.391309
    33  H    0.198977
    34  H    0.144086
    35  H    0.212531
    36  H    0.161367
    37  H    0.182105
    38  H    0.164390
    39  H    0.179893
    40  H    0.213640
    41  H    0.175126
    42  H    0.180515
    43  H    0.169687
    44  H    0.176776
    45  H    0.160453
    46  H    0.148608
    47  H    0.201186
    48  H    0.173063
    49  H    0.185435
    50  H    0.183483
    51  H    0.148308
    52  H    0.226724
    53  H    0.390940
    54  H    0.211139
    55  H    0.209523
    56  H    0.176205
    57  H    0.395219
    58  H    0.164734
    59  H    0.199966
    60  H    0.184963
    61  H    0.382608
    62  H    0.218624
    63  H    0.177176
    64  H    0.201376
 Sum of Mulliken atomic charges =   0.00000

 Dipole moment (field-independent basis, Debye):
    X=             -2.7912    Y=             -4.3688    Z=              6.5416  Tot=              8.3468
 Quadrupole moment (field-independent basis, Debye-Ang):
   XX=           -194.2386   YY=           -155.6414   ZZ=           -173.5402
   XY=             13.7077   XZ=            -18.3009   YZ=             10.1192

 Normal termination of Gaussian 09 at Thu Dec  5 19:15:04 2019.
