 Gaussian 09, Revision A.02,
 Gaussian 09:  EM64L-G09RevA.02 11-Jun-2009

 ---------------------------------
 #SP HF/6-31G* Geom=(ModRedundant)
 ---------------------------------

 ------------
 paramfit run
 ------------
 Symbolic Z-matrix:
 Charge =  0 Multiplicity = 1

                         Standard orientation:
 ---------------------------------------------------------------------
 Center     Atomic      Atomic             Coordinates (Angstroms)
 Number     Number       Type             X           Y           Z
 ---------------------------------------------------------------------
      1          6    20001001       -3.958730    0.919205    2.875234
      2          7    20001014       -4.257491    0.203351    1.652311
      3          6    20001002       -4.477065    0.888274    0.505674
      4          8    20001024       -4.219498    2.054596    0.391232
      5          6    90000001       -4.951189    0.062635   -0.703836
      6          6    90000002       -5.587820    0.992517   -1.742037
      7          6    90000002       -3.761706   -0.732869   -1.307081
      8          6    90000002       -2.545492    0.039084   -1.849806
      9          6    90000002       -1.476191    0.493081   -0.836337
     10          6    20001004       -0.883750   -0.632949   -0.021874
     11          6    20001004        0.259141   -1.265578   -0.232443
     12          6    90000002        1.254431   -1.018911   -1.340732
     13          6    90000002        2.498869   -0.222259   -0.909127
     14          6    90000002        3.311199   -0.936393    0.179471
     15          6    90000002        4.681952   -0.331847    0.579729
     16          6    90000002        4.617383    0.016161    2.075781
     17          7    20001014        5.713897   -1.335861    0.359331
     18          6    20001002        7.039304   -1.036715    0.489198
     19          6    20001001        7.983403   -2.042424   -0.128890
     20          8    20001024        7.432769   -0.052137    1.050386
     21          6    20001002        4.975253    0.874118   -0.341330
     22          8    20001024        5.456714    0.702978   -1.428913
     23          7    20001014        4.576720    2.092698    0.083183
     24          6    20001001        4.865738    3.271385   -0.707620
     25          7    20001014       -5.909828   -0.967287   -0.277569
     26          6    20001002       -7.095802   -0.689860    0.335759
     27          6    20001001       -8.085069   -1.836263    0.370853
     28          8    20001024       -7.337134    0.377838    0.823529
     29          1    20001035       -4.801138    1.512967    3.211009
     30          1    20001035       -3.116727    1.576944    2.716701
     31          1    20001035       -3.701617    0.200036    3.642725
     32          1    20001029       -4.709969   -0.676553    1.737852
     33          1    20001034       -4.900392    1.766628   -2.047206
     34          1    20001034       -5.880433    0.414401   -2.613471
     35          1    20001034       -6.462163    1.474507   -1.329561
     36          1    20001034       -4.178579   -1.298054   -2.137745
     37          1    20001034       -3.431446   -1.464808   -0.576688
     38          1    20001034       -2.058671   -0.617794   -2.564742
     39          1    20001034       -2.877029    0.904857   -2.413627
     40          1    20001034       -1.891207    1.234453   -0.165896
     41          1    20001034       -0.698100    0.999021   -1.397081
     42          1    20001033       -1.470362   -0.942188    0.828049
     43          1    20001033        0.525074   -2.047354    0.461723
     44          1    20001034        0.781494   -0.491375   -2.160185
     45          1    20001034        1.570899   -1.980901   -1.742001
     46          1    20001034        3.105276   -0.051390   -1.794255
     47          1    20001034        2.194359    0.756777   -0.563306
     48          1    20001034        3.503214   -1.962187   -0.127794
     49          1    20001034        2.711220   -0.989469    1.080337
     50          1    20001034        4.511994   -0.902300    2.641381
     51          1    20001034        3.754721    0.635555    2.298370
     52          1    20001034        5.515193    0.515317    2.408227
     53          1    20001029        5.507025   -2.010816   -0.340919
     54          1    20001034        8.956910   -1.938931    0.325679
     55          1    20001034        8.070005   -1.828863   -1.190030
     56          1    20001034        7.628858   -3.060750   -0.011880
     57          1    20001029        4.413616    2.225293    1.053299
     58          1    20001035        4.362542    4.118931   -0.261099
     59          1    20001035        4.499123    3.134202   -1.714298
     60          1    20001035        5.930997    3.473162   -0.755200
     61          1    20001029       -5.856919   -1.832389   -0.767822
     62          1    20001034       -8.786003   -1.668084    1.175453
     63          1    20001034       -7.597514   -2.795318    0.505219
     64          1    20001034       -8.633311   -1.862379   -0.565390
 ---------------------------------------------------------------------

 SCF Done:  E(RHF) =  -1295.61355029     A.U. after   14 cycles

 The electronic state is 1-A.
 Alpha  occ. eigenvalues --  -20.53696 -20.52115 -20.51935 -20.51631 -15.59655
 Alpha  occ. eigenvalues --  -15.57938 -15.57669 -15.57614 -11.36013 -11.34296
 Alpha  occ. eigenvalues --  -11.33942 -11.33733 -11.29082 -11.28506 -11.25056
 Alpha  occ. eigenvalues --  -11.24994 -11.24393 -11.24043 -11.23282 -11.22739
 Alpha  occ. eigenvalues --  -11.22581 -11.22403 -11.22192 -11.21989 -11.21962
 Alpha  occ. eigenvalues --  -11.21751 -11.21676 -11.20910  -1.40635  -1.39452
 Alpha  occ. eigenvalues --   -1.38791  -1.38178  -1.25484  -1.23656  -1.22689
 Alpha  occ. eigenvalues --   -1.22158  -1.10775  -1.09328  -1.07223  -1.04142
 Alpha  occ. eigenvalues --   -1.01205  -0.99388  -0.98656  -0.95602  -0.95175
 Alpha  occ. eigenvalues --   -0.94656  -0.92235  -0.87346  -0.85781  -0.83122
 Alpha  occ. eigenvalues --   -0.81743  -0.79284  -0.78312  -0.77257  -0.76888
 Alpha  occ. eigenvalues --   -0.71735  -0.71280  -0.71072  -0.68970  -0.68103
 Alpha  occ. eigenvalues --   -0.66628  -0.65898  -0.64941  -0.64055  -0.63562
 Alpha  occ. eigenvalues --   -0.63080  -0.62606  -0.62246  -0.61520  -0.61140
 Alpha  occ. eigenvalues --   -0.60790  -0.59953  -0.59443  -0.58640  -0.58576
 Alpha  occ. eigenvalues --   -0.58263  -0.57596  -0.56867  -0.56404  -0.55737
 Alpha  occ. eigenvalues --   -0.55163  -0.55080  -0.54847  -0.54612  -0.54078
 Alpha  occ. eigenvalues --   -0.53149  -0.52860  -0.52331  -0.52136  -0.51292
 Alpha  occ. eigenvalues --   -0.51072  -0.50498  -0.49733  -0.49278  -0.48447
 Alpha  occ. eigenvalues --   -0.47920  -0.46969  -0.46701  -0.44466  -0.42920
 Alpha  occ. eigenvalues --   -0.42003  -0.41629  -0.41043  -0.39352  -0.38925
 Alpha  occ. eigenvalues --   -0.38403  -0.38254  -0.34489
 Alpha virt. eigenvalues --    0.17431   0.18756   0.19755   0.19941   0.20192
 Alpha virt. eigenvalues --    0.21410   0.21695   0.23166   0.23369   0.23770
 Alpha virt. eigenvalues --    0.25319   0.25444   0.26414   0.27214   0.27417

 Mulliken atomic charges:
              1
     1  C   -0.279436
     2  N   -0.783248
     3  C    0.822108
     4  O   -0.628978
     5  C    0.102246
     6  C   -0.472711
     7  C   -0.334461
     8  C   -0.311585
     9  C   -0.372743
    10  C   -0.182076
    11  C   -0.176726
    12  C   -0.350650
    13  C   -0.341028
    14  C   -0.344487
    15  C    0.146966
    16  C   -0.519113
    17  N   -0.795916
    18  C    0.766763
    19  C   -0.594564
    20  O   -0.612549
    21  C    0.801483
    22  O   -0.639003
    23  N   -0.800034
    24  C   -0.275367
    25  N   -0.843080
    26  C    0.744535
    27  C   -0.588699
    28  O   -0.591925
    29  H    0.187131
    30  H    0.197083
    31  H    0.162767
    32  H    0.391616
    33  H    0.198479
    34  H    0.144457
    35  H    0.212469
    36  H    0.161747
    37  H    0.182526
    38  H    0.165619
    39  H    0.179217
    40  H    0.211750
    41  H    0.172705
    42  H    0.179982
    43  H    0.170064
    44  H    0.176527
    45  H    0.162112
    46  H    0.201142
    47  H    0.179875
    48  H    0.160516
    49  H    0.189152
    50  H    0.184743
    51  H    0.151569
    52  H    0.222977
    53  H    0.384378
    54  H    0.211436
    55  H    0.209218
    56  H    0.176523
    57  H    0.396933
    58  H    0.166755
    59  H    0.197177
    60  H    0.185341
    61  H    0.382810
    62  H    0.218663
    63  H    0.177349
    64  H    0.201471
 Sum of Mulliken atomic charges =   0.00000

 Dipole moment (field-independent basis, Debye):
    X=             -3.0435    Y=             -6.6509    Z=             -0.2070  Tot=              7.3171
 Quadrupole moment (field-independent basis, Debye-Ang):
   XX=           -201.3752   YY=           -162.4277   ZZ=           -168.3991
   XY=             23.4754   XZ=              8.0323   YZ=              1.5642

 Normal termination of Gaussian 09 at Thu Dec  5 19:50:36 2019.
