 Gaussian 09, Revision A.02,
 Gaussian 09:  EM64L-G09RevA.02 11-Jun-2009

 ---------------------------------
 #SP HF/6-31G* Geom=(ModRedundant)
 ---------------------------------

 ------------
 paramfit run
 ------------
 Symbolic Z-matrix:
 Charge =  0 Multiplicity = 1

                         Standard orientation:
 ---------------------------------------------------------------------
 Center     Atomic      Atomic             Coordinates (Angstroms)
 Number     Number       Type             X           Y           Z
 ---------------------------------------------------------------------
      1          6    20001001       -3.845511    2.722059    1.155538
      2          7    20001014       -4.170957    1.337463    0.883098
      3          6    20001002       -4.371419    0.929426   -0.391826
      4          8    20001024       -4.076335    1.603991   -1.339261
      5          6    90000001       -4.875671   -0.513111   -0.576766
      6          6    90000002       -5.484675   -0.668586   -1.974186
      7          6    90000002       -3.714472   -1.518514   -0.347889
      8          6    90000002       -2.475336   -1.448405   -1.258527
      9          6    90000002       -1.388894   -0.411899   -0.909332
     10          6    20001004       -0.831090   -0.552841    0.487546
     11          6    20001004        0.289978   -1.154332    0.851101
     12          6    90000002        1.289569   -1.850302   -0.041198
     13          6    90000002        2.560534   -1.030846   -0.328785
     14          6    90000002        3.352315   -0.699713    0.943358
     15          6    90000002        4.743179   -0.033152    0.782618
     16          6    90000002        5.092838    0.640803    2.119395
     17          7    20001014        5.723630   -1.070092    0.491071
     18          6    20001002        7.010730   -0.761201    0.157872
     19          6    20001001        7.792648   -1.887852   -0.477788
     20          8    20001024        7.492072    0.320346    0.352059
     21          6    20001002        4.688693    0.933961   -0.421728
     22          8    20001024        4.845121    0.519964   -1.538898
     23          7    20001014        4.360192    2.220045   -0.172619
     24          6    20001001        4.340735    3.189704   -1.248531
     25          7    20001014       -5.866108   -0.846613    0.457276
     26          6    20001002       -7.040642   -0.174323    0.625105
     27          6    20001001       -8.066614   -0.878279    1.488786
     28          8    20001024       -7.245664    0.900701    0.136812
     29          1    20001035       -4.667162    3.385198    0.910413
     30          1    20001035       -2.982995    3.015245    0.575166
     31          1    20001035       -3.609741    2.821155    2.207653
     32          1    20001029       -4.651603    0.834046    1.591502
     33          1    20001034       -4.773285   -0.405674   -2.742128
     34          1    20001034       -5.798475   -1.698060   -2.118929
     35          1    20001034       -6.341663   -0.020417   -2.085433
     36          1    20001034       -4.151928   -2.505850   -0.478356
     37          1    20001034       -3.406117   -1.457478    0.691087
     38          1    20001034       -2.012232   -2.430198   -1.223384
     39          1    20001034       -2.780127   -1.295972   -2.288692
     40          1    20001034       -1.777608    0.590243   -1.035728
     41          1    20001034       -0.596361   -0.519917   -1.641492
     42          1    20001033       -1.425005   -0.102234    1.266218
     43          1    20001033        0.532314   -1.151828    1.902304
     44          1    20001034        0.831700   -2.109432   -0.988126
     45          1    20001034        1.573380   -2.792454    0.426129
     46          1    20001034        3.169625   -1.599409   -1.026008
     47          1    20001034        2.289069   -0.119526   -0.845152
     48          1    20001034        3.509933   -1.610083    1.517743
     49          1    20001034        2.753530   -0.042004    1.562409
     50          1    20001034        5.207932   -0.127142    2.875436
     51          1    20001034        4.296908    1.301853    2.446334
     52          1    20001034        6.018160    1.193666    2.057265
     53          1    20001029        5.362757   -1.882561    0.045675
     54          1    20001034        8.848256   -1.694027   -0.362969
     55          1    20001034        7.557198   -1.917495   -1.537416
     56          1    20001034        7.545988   -2.851142   -0.044642
     57          1    20001029        4.476397    2.567425    0.749951
     58          1    20001035        3.939850    4.119982   -0.868012
     59          1    20001035        3.707944    2.834358   -2.048486
     60          1    20001035        5.333610    3.366349   -1.649467
     61          1    20001029       -5.842817   -1.785858    0.787162
     62          1    20001034       -8.759373   -0.145215    1.875666
     63          1    20001034       -7.610165   -1.419150    2.310165
     64          1    20001034       -8.618117   -1.587601    0.880091
 ---------------------------------------------------------------------

 SCF Done:  E(RHF) =  -1295.62020987     A.U. after   14 cycles

 The electronic state is 1-A.
 Alpha  occ. eigenvalues --  -20.53660 -20.52101 -20.51872 -20.51540 -15.59616
 Alpha  occ. eigenvalues --  -15.57900 -15.57638 -15.57562 -11.35978 -11.34299
 Alpha  occ. eigenvalues --  -11.33883 -11.33663 -11.29033 -11.28531 -11.24958
 Alpha  occ. eigenvalues --  -11.24943 -11.24367 -11.23997 -11.23303 -11.22678
 Alpha  occ. eigenvalues --  -11.22560 -11.22411 -11.22171 -11.22084 -11.21968
 Alpha  occ. eigenvalues --  -11.21765 -11.21581 -11.20858  -1.40598  -1.39392
 Alpha  occ. eigenvalues --   -1.38730  -1.38106  -1.25442  -1.23596  -1.22604
 Alpha  occ. eigenvalues --   -1.22107  -1.10722  -1.09253  -1.07181  -1.04161
 Alpha  occ. eigenvalues --   -1.01195  -0.99337  -0.98709  -0.95550  -0.95111
 Alpha  occ. eigenvalues --   -0.94565  -0.92155  -0.87234  -0.85683  -0.82881
 Alpha  occ. eigenvalues --   -0.81434  -0.79407  -0.78651  -0.77205  -0.76862
 Alpha  occ. eigenvalues --   -0.71843  -0.71267  -0.71060  -0.68942  -0.67984
 Alpha  occ. eigenvalues --   -0.66679  -0.65861  -0.64657  -0.63966  -0.63662
 Alpha  occ. eigenvalues --   -0.62611  -0.62372  -0.61800  -0.61488  -0.61183
 Alpha  occ. eigenvalues --   -0.60905  -0.59905  -0.59382  -0.58683  -0.58481
 Alpha  occ. eigenvalues --   -0.58239  -0.57733  -0.56624  -0.56343  -0.56202
 Alpha  occ. eigenvalues --   -0.55364  -0.54864  -0.54710  -0.54588  -0.53963
 Alpha  occ. eigenvalues --   -0.53088  -0.52822  -0.52458  -0.52074  -0.51371
 Alpha  occ. eigenvalues --   -0.51034  -0.50349  -0.49743  -0.49253  -0.48494
 Alpha  occ. eigenvalues --   -0.48079  -0.46908  -0.46463  -0.44454  -0.42878
 Alpha  occ. eigenvalues --   -0.41954  -0.41484  -0.41079  -0.39303  -0.38877
 Alpha  occ. eigenvalues --   -0.38348  -0.38287  -0.34452
 Alpha virt. eigenvalues --    0.17379   0.18791   0.19587   0.19981   0.20225
 Alpha virt. eigenvalues --    0.21601   0.21689   0.23247   0.23445   0.23865
 Alpha virt. eigenvalues --    0.25225   0.25659   0.26383   0.27049   0.27590

 Mulliken atomic charges:
              1
     1  C   -0.279513
     2  N   -0.783313
     3  C    0.822016
     4  O   -0.628425
     5  C    0.102271
     6  C   -0.472766
     7  C   -0.334341
     8  C   -0.311765
     9  C   -0.373556
    10  C   -0.180404
    11  C   -0.176399
    12  C   -0.354098
    13  C   -0.312732
    14  C   -0.339092
    15  C    0.106825
    16  C   -0.510870
    17  N   -0.786256
    18  C    0.766428
    19  C   -0.594788
    20  O   -0.613094
    21  C    0.821528
    22  O   -0.642538
    23  N   -0.806429
    24  C   -0.275787
    25  N   -0.843077
    26  C    0.744555
    27  C   -0.588678
    28  O   -0.591858
    29  H    0.187033
    30  H    0.197748
    31  H    0.162273
    32  H    0.391421
    33  H    0.198899
    34  H    0.144222
    35  H    0.212428
    36  H    0.161428
    37  H    0.182205
    38  H    0.164861
    39  H    0.179689
    40  H    0.212565
    41  H    0.175007
    42  H    0.179840
    43  H    0.169347
    44  H    0.177152
    45  H    0.158815
    46  H    0.172449
    47  H    0.187368
    48  H    0.172079
    49  H    0.184172
    50  H    0.183635
    51  H    0.149043
    52  H    0.225311
    53  H    0.384470
    54  H    0.211304
    55  H    0.209386
    56  H    0.176357
    57  H    0.395763
    58  H    0.165865
    59  H    0.199183
    60  H    0.184931
    61  H    0.382678
    62  H    0.218595
    63  H    0.177226
    64  H    0.201413
 Sum of Mulliken atomic charges =   0.00000

 Dipole moment (field-independent basis, Debye):
    X=             -2.8097    Y=             -5.2819    Z=              5.3788  Tot=              8.0452
 Quadrupole moment (field-independent basis, Debye-Ang):
   XX=           -195.8260   YY=           -157.9293   ZZ=           -171.9480
   XY=             17.2573   XZ=            -14.1248   YZ=              7.5319

 Normal termination of Gaussian 09 at Thu Dec  5 20:10:42 2019.
