 Gaussian 09, Revision A.02,
 Gaussian 09:  EM64L-G09RevA.02 11-Jun-2009

 ---------------------------------
 #SP HF/6-31G* Geom=(ModRedundant)
 ---------------------------------

 ------------
 paramfit run
 ------------
 Symbolic Z-matrix:
 Charge =  0 Multiplicity = 1

                         Standard orientation:
 ---------------------------------------------------------------------
 Center     Atomic      Atomic             Coordinates (Angstroms)
 Number     Number       Type             X           Y           Z
 ---------------------------------------------------------------------
      1          6    20001001        3.970949    2.886907    0.945670
      2          7    20001014        4.283108    1.662094    0.238821
      3          6    20001002        4.575994    0.537820    0.933324
      4          8    20001024        4.375322    0.436690    2.111988
      5          6    90000001        5.057803   -0.669287    0.108618
      6          6    90000002        5.773916   -1.665148    1.026924
      7          6    90000002        3.857425   -1.331141   -0.621207
      8          6    90000002        2.698189   -1.903042    0.214697
      9          6    90000002        1.612959   -0.920879    0.698713
     10          6    20001004        0.940589   -0.150754   -0.413539
     11          6    20001004       -0.220736   -0.415393   -0.989775
     12          6    90000002       -1.161680   -1.554470   -0.678519
     13          6    90000002       -2.384575   -1.153438    0.166033
     14          6    90000002       -3.268332   -0.109481   -0.529698
     15          6    90000002       -4.624739    0.251860    0.129269
     16          6    90000002       -4.400153    0.318509    1.648667
     17          7    20001014       -5.043001    1.559543   -0.357097
     18          6    20001002       -6.272152    2.072071   -0.057831
     19          6    20001001       -6.707071    3.232356   -0.923504
     20          8    20001024       -6.960796    1.639865    0.824273
     21          6    20001002       -5.678655   -0.788749   -0.312455
     22          8    20001024       -6.246612   -0.667011   -1.364374
     23          7    20001014       -5.850710   -1.872716    0.474560
     24          6    20001001       -6.857686   -2.860695    0.145779
     25          7    20001014        5.952740   -0.228214   -0.971183
     26          6    20001002        7.126067    0.433515   -0.758838
     27          6    20001001        8.061060    0.482614   -1.949424
     28          8    20001024        7.396420    0.950475    0.287968
     29          1    20001035        4.825865    3.264858    1.494507
     30          1    20001035        3.165750    2.710385    1.643680
     31          1    20001035        3.653294    3.630319    0.225401
     32          1    20001029        4.692252    1.747070   -0.662104
     33          1    20001034        5.133740   -1.980244    1.836751
     34          1    20001034        6.072898   -2.536324    0.451685
     35          1    20001034        6.652834   -1.211562    1.461308
     36          1    20001034        4.279502   -2.156770   -1.189897
     37          1    20001034        3.467569   -0.627729   -1.350251
     38          1    20001034        2.209668   -2.648000   -0.406594
     39          1    20001034        3.089049   -2.437378    1.074399
     40          1    20001034        2.035247   -0.221371    1.408448
     41          1    20001034        0.879878   -1.499870    1.249345
     42          1    20001033        1.480456    0.713960   -0.764146
     43          1    20001033       -0.547243    0.253216   -1.770874
     44          1    20001034       -0.635188   -2.345600   -0.158533
     45          1    20001034       -1.505561   -1.985708   -1.617866
     46          1    20001034       -2.949068   -2.056742    0.379957
     47          1    20001034       -2.049786   -0.777708    1.123933
     48          1    20001034       -3.494356   -0.443467   -1.540094
     49          1    20001034       -2.705578    0.811601   -0.625958
     50          1    20001034       -3.727509    1.140503    1.864205
     51          1    20001034       -3.932837   -0.588828    2.017089
     52          1    20001034       -5.323554    0.490423    2.181129
     53          1    20001029       -4.695893    1.809718   -1.254672
     54          1    20001034       -7.470038    3.793177   -0.405409
     55          1    20001034       -7.128510    2.838590   -1.843538
     56          1    20001034       -5.878949    3.885104   -1.177505
     57          1    20001029       -5.557392   -1.820747    1.421437
     58          1    20001035       -6.753283   -3.698770    0.822278
     59          1    20001035       -6.713162   -3.205656   -0.867503
     60          1    20001035       -7.861262   -2.456447    0.230485
     61          1    20001029        5.879642   -0.736800   -1.824145
     62          1    20001034        8.738106    1.315521   -1.827567
     63          1    20001034        7.526402    0.580324   -2.887584
     64          1    20001034        8.642354   -0.433202   -1.983777
 ---------------------------------------------------------------------

 SCF Done:  E(RHF) =  -1295.61837174     A.U. after   14 cycles

 The electronic state is 1-A.
 Alpha  occ. eigenvalues --  -20.53747 -20.52077 -20.52001 -20.51683 -15.59717
 Alpha  occ. eigenvalues --  -15.58063 -15.57669 -15.57651 -11.36064 -11.34300
 Alpha  occ. eigenvalues --  -11.34008 -11.33762 -11.29164 -11.28503 -11.25172
 Alpha  occ. eigenvalues --  -11.25018 -11.24433 -11.24156 -11.23347 -11.22901
 Alpha  occ. eigenvalues --  -11.22881 -11.22775 -11.22541 -11.22420 -11.22219
 Alpha  occ. eigenvalues --  -11.21872 -11.21423 -11.20991  -1.40688  -1.39412
 Alpha  occ. eigenvalues --   -1.38856  -1.38139  -1.25548  -1.23588  -1.22752
 Alpha  occ. eigenvalues --   -1.22213  -1.11052  -1.09550  -1.07315  -1.04169
 Alpha  occ. eigenvalues --   -1.01253  -0.99464  -0.98505  -0.95646  -0.95299
 Alpha  occ. eigenvalues --   -0.94526  -0.92689  -0.87975  -0.86173  -0.82737
 Alpha  occ. eigenvalues --   -0.81443  -0.79287  -0.78313  -0.77313  -0.76898
 Alpha  occ. eigenvalues --   -0.71772  -0.71584  -0.71289  -0.69032  -0.68417
 Alpha  occ. eigenvalues --   -0.66586  -0.65955  -0.64709  -0.64222  -0.64007
 Alpha  occ. eigenvalues --   -0.63051  -0.62612  -0.62117  -0.61477  -0.61195
 Alpha  occ. eigenvalues --   -0.61101  -0.60051  -0.59655  -0.58940  -0.58622
 Alpha  occ. eigenvalues --   -0.58320  -0.57980  -0.57016  -0.56369  -0.56063
 Alpha  occ. eigenvalues --   -0.55714  -0.55023  -0.54692  -0.54496  -0.53782
 Alpha  occ. eigenvalues --   -0.53103  -0.52927  -0.52417  -0.51969  -0.51370
 Alpha  occ. eigenvalues --   -0.51134  -0.50484  -0.49970  -0.49266  -0.48733
 Alpha  occ. eigenvalues --   -0.48033  -0.47150  -0.46992  -0.44783  -0.42982
 Alpha  occ. eigenvalues --   -0.42072  -0.41505  -0.41043  -0.39415  -0.38911
 Alpha  occ. eigenvalues --   -0.38493  -0.38456  -0.34741
 Alpha virt. eigenvalues --    0.17120   0.18704   0.19693   0.19874   0.20147
 Alpha virt. eigenvalues --    0.21685   0.22401   0.22989   0.23082   0.23874
 Alpha virt. eigenvalues --    0.25138   0.25293   0.26469   0.26757   0.27711

 Mulliken atomic charges:
              1
     1  C   -0.279735
     2  N   -0.783461
     3  C    0.821861
     4  O   -0.628831
     5  C    0.102356
     6  C   -0.472735
     7  C   -0.334528
     8  C   -0.311704
     9  C   -0.372619
    10  C   -0.179986
    11  C   -0.177226
    12  C   -0.351008
    13  C   -0.321043
    14  C   -0.352561
    15  C    0.125655
    16  C   -0.519993
    17  N   -0.792584
    18  C    0.766978
    19  C   -0.594102
    20  O   -0.612902
    21  C    0.807899
    22  O   -0.638340
    23  N   -0.802580
    24  C   -0.275293
    25  N   -0.843098
    26  C    0.744485
    27  C   -0.588733
    28  O   -0.591764
    29  H    0.187357
    30  H    0.197652
    31  H    0.162925
    32  H    0.391679
    33  H    0.198154
    34  H    0.144455
    35  H    0.212832
    36  H    0.162085
    37  H    0.182762
    38  H    0.165248
    39  H    0.179307
    40  H    0.213312
    41  H    0.170361
    42  H    0.181578
    43  H    0.171297
    44  H    0.175194
    45  H    0.169412
    46  H    0.170268
    47  H    0.176929
    48  H    0.186527
    49  H    0.184398
    50  H    0.185567
    51  H    0.155751
    52  H    0.224481
    53  H    0.382802
    54  H    0.211442
    55  H    0.209053
    56  H    0.176987
    57  H    0.396691
    58  H    0.164793
    59  H    0.197794
    60  H    0.185795
    61  H    0.382882
    62  H    0.218853
    63  H    0.177472
    64  H    0.201496
 Sum of Mulliken atomic charges =   0.00000

 Dipole moment (field-independent basis, Debye):
    X=              3.3081    Y=             -1.6407    Z=             -5.2771  Tot=              6.4407
 Quadrupole moment (field-independent basis, Debye-Ang):
   XX=           -208.6285   YY=           -155.2717   ZZ=           -175.6247
   XY=             -3.2524   XZ=            -36.9555   YZ=            -11.9169

 Normal termination of Gaussian 09 at Thu Dec  5 20:07:38 2019.
