 Gaussian 09, Revision A.02,
 Gaussian 09:  EM64L-G09RevA.02 11-Jun-2009

 ---------------------------------
 #SP HF/6-31G* Geom=(ModRedundant)
 ---------------------------------

 ------------
 paramfit run
 ------------
 Symbolic Z-matrix:
 Charge =  0 Multiplicity = 1

                         Standard orientation:
 ---------------------------------------------------------------------
 Center     Atomic      Atomic             Coordinates (Angstroms)
 Number     Number       Type             X           Y           Z
 ---------------------------------------------------------------------
      1          6    20001001       -3.582826    3.315087    0.848208
      2          7    20001014       -4.031106    1.943608    0.724369
      3          6    20001002       -4.276666    1.421671   -0.500127
      4          8    20001024       -3.930692    1.962930   -1.513580
      5          6    90000001       -4.907473    0.017922   -0.531084
      6          6    90000002       -5.538678   -0.230776   -1.904973
      7          6    90000002       -3.837619   -1.056173   -0.194431
      8          6    90000002       -2.604258   -1.193131   -1.105309
      9          6    90000002       -1.428035   -0.225532   -0.866795
     10          6    20001004       -0.873948   -0.265934    0.538066
     11          6    20001004        0.192567   -0.922130    0.965511
     12          6    90000002        1.119971   -1.794674    0.154129
     13          6    90000002        2.455909   -1.126059   -0.217071
     14          6    90000002        3.283674   -0.732873    1.013833
     15          6    90000002        4.726560   -0.212800    0.785252
     16          6    90000002        5.307053    0.165589    2.157586
     17          7    20001014        5.519734   -1.286399    0.202336
     18          6    20001002        6.793194   -1.072896   -0.240127
     19          6    20001001        7.341441   -2.149561   -1.148434
     20          8    20001024        7.435135   -0.106420    0.064795
     21          6    20001002        4.673984    0.954448   -0.226426
     22          8    20001024        4.650956    0.732418   -1.407146
     23          7    20001014        4.552107    2.204076    0.271126
     24          6    20001001        4.548268    3.346739   -0.619106
     25          7    20001014       -5.915352   -0.114854    0.530981
     26          6    20001002       -6.901829   -1.056392    0.524739
     27          6    20001001       -7.604967   -1.259651    1.850786
     28          8    20001024       -7.202042   -1.671652   -0.458860
     29          1    20001035       -4.344744    4.018452    0.532440
     30          1    20001035       -2.702383    3.467479    0.241315
     31          1    20001035       -3.331051    3.504241    1.884153
     32          1    20001029       -4.548699    1.562848    1.481604
     33          1    20001034       -4.812898   -0.114944   -2.695390
     34          1    20001034       -5.943075   -1.237998   -1.939676
     35          1    20001034       -6.336069    0.475122   -2.086088
     36          1    20001034       -4.361362   -2.009209   -0.219635
     37          1    20001034       -3.516998   -0.912529    0.832628
     38          1    20001034       -2.229193   -2.202707   -0.964953
     39          1    20001034       -2.902454   -1.124735   -2.146355
     40          1    20001034       -1.727920    0.787917   -1.099930
     41          1    20001034       -0.653831   -0.480438   -1.581962
     42          1    20001033       -1.419769    0.315651    1.263291
     43          1    20001033        0.442366   -0.829317    2.010857
     44          1    20001034        0.633687   -2.111501   -0.760538
     45          1    20001034        1.323306   -2.703186    0.719685
     46          1    20001034        3.007088   -1.817149   -0.848713
     47          1    20001034        2.261772   -0.254389   -0.828080
     48          1    20001034        3.364945   -1.587367    1.682242
     49          1    20001034        2.750005    0.037284    1.558264
     50          1    20001034        5.397872   -0.733603    2.755739
     51          1    20001034        4.648369    0.844357    2.689367
     52          1    20001034        6.286692    0.610442    2.067299
     53          1    20001029        5.005807   -1.958766   -0.319691
     54          1    20001034        8.419762   -2.102234   -1.141618
     55          1    20001034        6.990920   -1.961311   -2.158791
     56          1    20001034        7.014543   -3.140057   -0.851047
     57          1    20001029        4.813528    2.364572    1.215165
     58          1    20001035        4.320992    4.233486   -0.042090
     59          1    20001035        3.790289    3.215890   -1.377375
     60          1    20001035        5.506684    3.477036   -1.111260
     61          1    20001029       -5.649916    0.242039    1.421889
     62          1    20001034       -8.574845   -1.698854    1.668000
     63          1    20001034       -7.721307   -0.332208    2.400210
     64          1    20001034       -7.024576   -1.944786    2.460324
 ---------------------------------------------------------------------

 SCF Done:  E(RHF) =  -1295.59877748     A.U. after   14 cycles

 The electronic state is 1-A.
 Alpha  occ. eigenvalues --  -20.53377 -20.52928 -20.52073 -20.51651 -15.59980
 Alpha  occ. eigenvalues --  -15.59649 -15.57983 -15.57548 -11.35991 -11.35194
 Alpha  occ. eigenvalues --  -11.34278 -11.33738 -11.28920 -11.28611 -11.26775
 Alpha  occ. eigenvalues --  -11.25090 -11.24277 -11.23431 -11.22876 -11.22520
 Alpha  occ. eigenvalues --  -11.22517 -11.22350 -11.22268 -11.22084 -11.21980
 Alpha  occ. eigenvalues --  -11.21864 -11.21478 -11.19324  -1.40555  -1.40042
 Alpha  occ. eigenvalues --   -1.39408  -1.38134  -1.26197  -1.23613  -1.23579
 Alpha  occ. eigenvalues --   -1.22693  -1.10644  -1.09025  -1.07147  -1.04181
 Alpha  occ. eigenvalues --   -1.01126  -0.99190  -0.98720  -0.97028  -0.95024
 Alpha  occ. eigenvalues --   -0.94385  -0.91824  -0.87377  -0.85885  -0.82751
 Alpha  occ. eigenvalues --   -0.81414  -0.80299  -0.79501  -0.76934  -0.76674
 Alpha  occ. eigenvalues --   -0.74205  -0.71851  -0.71163  -0.68098  -0.67712
 Alpha  occ. eigenvalues --   -0.66877  -0.66107  -0.64955  -0.64373  -0.63948
 Alpha  occ. eigenvalues --   -0.63263  -0.62854  -0.61831  -0.61456  -0.61316
 Alpha  occ. eigenvalues --   -0.61101  -0.60256  -0.59393  -0.58738  -0.58703
 Alpha  occ. eigenvalues --   -0.57870  -0.57646  -0.56658  -0.56368  -0.56356
 Alpha  occ. eigenvalues --   -0.56083  -0.55154  -0.54842  -0.54411  -0.53671
 Alpha  occ. eigenvalues --   -0.53551  -0.53108  -0.52340  -0.52264  -0.51726
 Alpha  occ. eigenvalues --   -0.51160  -0.50014  -0.49754  -0.48834  -0.48292
 Alpha  occ. eigenvalues --   -0.47906  -0.47158  -0.46392  -0.44375  -0.43379
 Alpha  occ. eigenvalues --   -0.41548  -0.41162  -0.41091  -0.40354  -0.38890
 Alpha  occ. eigenvalues --   -0.38510  -0.38346  -0.34506
 Alpha virt. eigenvalues --    0.17141   0.17852   0.18417   0.19580   0.19620
 Alpha virt. eigenvalues --    0.21556   0.21919   0.22950   0.23217   0.24042
 Alpha virt. eigenvalues --    0.25049   0.25852   0.26395   0.26611   0.27415

 Mulliken atomic charges:
              1
     1  C   -0.283075
     2  N   -0.795273
     3  C    0.814586
     4  O   -0.612260
     5  C    0.059886
     6  C   -0.480856
     7  C   -0.298607
     8  C   -0.317842
     9  C   -0.373585
    10  C   -0.174289
    11  C   -0.176334
    12  C   -0.353836
    13  C   -0.310895
    14  C   -0.328853
    15  C    0.091138
    16  C   -0.509486
    17  N   -0.787585
    18  C    0.767204
    19  C   -0.595717
    20  O   -0.614126
    21  C    0.820566
    22  O   -0.638901
    23  N   -0.806294
    24  C   -0.275408
    25  N   -0.825529
    26  C    0.766559
    27  C   -0.590845
    28  O   -0.597568
    29  H    0.180731
    30  H    0.211242
    31  H    0.169525
    32  H    0.370892
    33  H    0.185498
    34  H    0.236252
    35  H    0.171203
    36  H    0.188693
    37  H    0.151906
    38  H    0.163892
    39  H    0.180786
    40  H    0.204011
    41  H    0.175254
    42  H    0.171200
    43  H    0.168083
    44  H    0.179269
    45  H    0.160956
    46  H    0.151744
    47  H    0.198916
    48  H    0.173490
    49  H    0.183800
    50  H    0.183799
    51  H    0.147557
    52  H    0.226628
    53  H    0.390125
    54  H    0.211158
    55  H    0.209664
    56  H    0.176634
    57  H    0.395120
    58  H    0.163997
    59  H    0.199524
    60  H    0.185405
    61  H    0.366122
    62  H    0.221025
    63  H    0.176316
    64  H    0.196805
 Sum of Mulliken atomic charges =   0.00000

 Dipole moment (field-independent basis, Debye):
    X=             -2.0879    Y=              0.0683    Z=              7.5126  Tot=              7.7976
 Quadrupole moment (field-independent basis, Debye-Ang):
   XX=           -206.4740   YY=           -160.3616   ZZ=           -170.1792
   XY=            -17.0194   XZ=            -25.2735   YZ=             10.8450

 Normal termination of Gaussian 09 at Thu Dec  5 16:51:28 2019.
