 Gaussian 09, Revision A.02,
 Gaussian 09:  EM64L-G09RevA.02 11-Jun-2009

 ---------------------------------
 #SP HF/6-31G* Geom=(ModRedundant)
 ---------------------------------

 ------------
 paramfit run
 ------------
 Symbolic Z-matrix:
 Charge =  0 Multiplicity = 1

                         Standard orientation:
 ---------------------------------------------------------------------
 Center     Atomic      Atomic             Coordinates (Angstroms)
 Number     Number       Type             X           Y           Z
 ---------------------------------------------------------------------
      1          6    20001001       -3.925920    2.986948    0.558161
      2          7    20001014       -4.299407    1.597165    0.396125
      3          6    20001002       -4.466143    1.083291   -0.844940
      4          8    20001024       -4.104758    1.657013   -1.834884
      5          6    90000001       -5.024111   -0.349201   -0.922552
      6          6    90000002       -5.582946   -0.606855   -2.325819
      7          6    90000002       -3.917242   -1.374421   -0.554631
      8          6    90000002       -2.640864   -1.435854   -1.412956
      9          6    90000002       -1.525709   -0.415317   -1.110349
     10          6    20001004       -1.030699   -0.450672    0.316533
     11          6    20001004        0.048084   -1.060163    0.780760
     12          6    90000002        1.051686   -1.872872   -0.001569
     13          6    90000002        2.367149   -1.133337   -0.305234
     14          6    90000002        3.120994   -0.719418    0.965712
     15          6    90000002        4.544517   -0.125217    0.807112
     16          6    90000002        5.046333    0.259475    2.208412
     17          7    20001014        5.414487   -1.148967    0.244422
     18          6    20001002        6.693391   -0.865882   -0.139409
     19          6    20001001        7.332991   -1.899602   -1.037818
     20          8    20001024        7.272642    0.126117    0.206348
     21          6    20001002        4.476853    1.053959   -0.189728
     22          8    20001024        4.515313    0.849871   -1.373280
     23          7    20001014        4.271572    2.287979    0.319227
     24          6    20001001        4.248590    3.443076   -0.554517
     25          7    20001014       -6.068460   -0.548419    0.092868
     26          6    20001002       -5.819687   -0.610774    1.432232
     27          6    20001001       -7.037839   -0.462115    2.319998
     28          8    20001024       -4.720802   -0.782788    1.878329
     29          1    20001035       -4.707881    3.656798    0.219357
     30          1    20001035       -3.029119    3.192229   -0.007817
     31          1    20001035       -3.728310    3.171793    1.606558
     32          1    20001029       -4.829138    1.179335    1.124883
     33          1    20001034       -4.830822   -0.442797   -3.082343
     34          1    20001034       -5.934651   -1.632123   -2.391894
     35          1    20001034       -6.406172    0.061632   -2.531614
     36          1    20001034       -4.391148   -2.351616   -0.615648
     37          1    20001034       -3.648283   -1.231488    0.487247
     38          1    20001034       -2.222137   -2.427800   -1.270377
     39          1    20001034       -2.897447   -1.365704   -2.464915
     40          1    20001034       -1.865656    0.585682   -1.342297
     41          1    20001034       -0.709945   -0.620306   -1.794705
     42          1    20001033       -1.635328    0.091666    1.025339
     43          1    20001033        0.248134   -0.971778    1.837135
     44          1    20001034        0.621285   -2.198717   -0.940743
     45          1    20001034        1.275874   -2.779126    0.559712
     46          1    20001034        2.978608   -1.786256   -0.921829
     47          1    20001034        2.155919   -0.262699   -0.912030
     48          1    20001034        3.216297   -1.579385    1.625188
     49          1    20001034        2.526775    0.014714    1.497035
     50          1    20001034        5.156393   -0.643540    2.797504
     51          1    20001034        4.332476    0.896373    2.720418
     52          1    20001034        6.005473    0.753500    2.166835
     53          1    20001029        4.957531   -1.837483   -0.308613
     54          1    20001034        8.406327   -1.799244   -0.983586
     55          1    20001034        7.016897   -1.712829   -2.059740
     56          1    20001034        7.043622   -2.909625   -0.768555
     57          1    20001029        4.484156    2.446142    1.275836
     58          1    20001035        3.952885    4.308239    0.024252
     59          1    20001035        3.531118    3.287067   -1.346679
     60          1    20001035        5.219407    3.628313   -1.002796
     61          1    20001029       -6.986011   -0.268574   -0.174217
     62          1    20001034       -6.823191   -0.900590    3.283657
     63          1    20001034       -7.917023   -0.931088    1.892622
     64          1    20001034       -7.249998    0.592983    2.459841
 ---------------------------------------------------------------------

 SCF Done:  E(RHF) =  -1295.59590926     A.U. after   14 cycles

 The electronic state is 1-A.
 Alpha  occ. eigenvalues --  -20.54405 -20.52545 -20.51688 -20.51192 -15.60207
 Alpha  occ. eigenvalues --  -15.57875 -15.57534 -15.57104 -11.37133 -11.34097
 Alpha  occ. eigenvalues --  -11.33893 -11.33275 -11.28922 -11.28092 -11.25542
 Alpha  occ. eigenvalues --  -11.25188 -11.24697 -11.22777 -11.22218 -11.22195
 Alpha  occ. eigenvalues --  -11.21645 -11.21580 -11.21377 -11.20954 -11.20934
 Alpha  occ. eigenvalues --  -11.20756 -11.20402 -11.20384  -1.42301  -1.39452
 Alpha  occ. eigenvalues --   -1.38987  -1.37711  -1.25970  -1.23126  -1.22695
 Alpha  occ. eigenvalues --   -1.22247  -1.09760  -1.08691  -1.06691  -1.03656
 Alpha  occ. eigenvalues --   -1.01091  -0.99292  -0.98375  -0.96219  -0.94581
 Alpha  occ. eigenvalues --   -0.93898  -0.91230  -0.86831  -0.85260  -0.82161
 Alpha  occ. eigenvalues --   -0.80763  -0.79581  -0.79051  -0.77688  -0.76487
 Alpha  occ. eigenvalues --   -0.72565  -0.71148  -0.70768  -0.69962  -0.67510
 Alpha  occ. eigenvalues --   -0.66196  -0.65707  -0.64244  -0.63635  -0.63165
 Alpha  occ. eigenvalues --   -0.62973  -0.62219  -0.61410  -0.61207  -0.60947
 Alpha  occ. eigenvalues --   -0.60690  -0.60484  -0.59305  -0.58781  -0.58243
 Alpha  occ. eigenvalues --   -0.57587  -0.56829  -0.56172  -0.55829  -0.55771
 Alpha  occ. eigenvalues --   -0.55197  -0.54915  -0.54550  -0.54337  -0.53680
 Alpha  occ. eigenvalues --   -0.53263  -0.52994  -0.52654  -0.52499  -0.51680
 Alpha  occ. eigenvalues --   -0.50895  -0.49810  -0.49383  -0.48422  -0.47904
 Alpha  occ. eigenvalues --   -0.47261  -0.45758  -0.45319  -0.44562  -0.43888
 Alpha  occ. eigenvalues --   -0.41092  -0.40696  -0.40512  -0.38910  -0.38502
 Alpha  occ. eigenvalues --   -0.38446  -0.37893  -0.33251
 Alpha virt. eigenvalues --    0.16679   0.18528   0.19403   0.20058   0.20601
 Alpha virt. eigenvalues --    0.22002   0.22444   0.23364   0.23751   0.24113
 Alpha virt. eigenvalues --    0.25812   0.26171   0.26951   0.27572   0.27931

 Mulliken atomic charges:
              1
     1  C   -0.281936
     2  N   -0.786699
     3  C    0.790535
     4  O   -0.622288
     5  C    0.064634
     6  C   -0.474599
     7  C   -0.354109
     8  C   -0.310772
     9  C   -0.371602
    10  C   -0.174616
    11  C   -0.181948
    12  C   -0.351946
    13  C   -0.310093
    14  C   -0.328456
    15  C    0.090601
    16  C   -0.509547
    17  N   -0.787510
    18  C    0.767368
    19  C   -0.595565
    20  O   -0.614802
    21  C    0.820921
    22  O   -0.639787
    23  N   -0.805692
    24  C   -0.274955
    25  N   -0.798475
    26  C    0.706487
    27  C   -0.582961
    28  O   -0.600514
    29  H    0.166373
    30  H    0.205586
    31  H    0.172014
    32  H    0.409895
    33  H    0.217650
    34  H    0.171721
    35  H    0.160421
    36  H    0.162374
    37  H    0.288199
    38  H    0.161868
    39  H    0.158204
    40  H    0.200671
    41  H    0.168967
    42  H    0.191521
    43  H    0.168773
    44  H    0.176364
    45  H    0.158943
    46  H    0.148327
    47  H    0.197649
    48  H    0.173323
    49  H    0.185753
    50  H    0.183584
    51  H    0.148544
    52  H    0.225123
    53  H    0.390247
    54  H    0.210145
    55  H    0.209101
    56  H    0.176498
    57  H    0.395056
    58  H    0.163729
    59  H    0.199502
    60  H    0.184030
    61  H    0.381625
    62  H    0.222739
    63  H    0.190612
    64  H    0.193191
 Sum of Mulliken atomic charges =   0.00000

 Dipole moment (field-independent basis, Debye):
    X=             -7.1999    Y=             -0.8461    Z=              3.4839  Tot=              8.0431
 Quadrupole moment (field-independent basis, Debye-Ang):
   XX=           -150.0188   YY=           -160.1451   ZZ=           -176.9298
   XY=            -10.3378   XZ=             -5.1239   YZ=             14.6186

 Normal termination of Gaussian 09 at Thu Dec  5 16:58:45 2019.
