 Gaussian 09, Revision A.02,
 Gaussian 09:  EM64L-G09RevA.02 11-Jun-2009

 ---------------------------------
 #SP HF/6-31G* Geom=(ModRedundant)
 ---------------------------------

 ------------
 paramfit run
 ------------
 Symbolic Z-matrix:
 Charge =  0 Multiplicity = 1

                         Standard orientation:
 ---------------------------------------------------------------------
 Center     Atomic      Atomic             Coordinates (Angstroms)
 Number     Number       Type             X           Y           Z
 ---------------------------------------------------------------------
      1          6    20001001       -3.949658    2.833028   -0.082827
      2          7    20001014       -4.283864    1.436476    0.104772
      3          6    20001002       -4.442296    0.629958   -0.970652
      4          8    20001024       -4.102792    0.953062   -2.075227
      5          6    90000001       -4.959231   -0.792209   -0.688506
      6          6    90000002       -5.517820   -1.400577   -1.979129
      7          6    90000002       -3.821403   -1.666232   -0.094339
      8          6    90000002       -2.548333   -1.902112   -0.926980
      9          6    90000002       -1.461414   -0.809253   -0.896941
     10          6    20001004       -0.958068   -0.480769    0.489067
     11          6    20001004        0.140234   -0.929037    1.075194
     12          6    90000002        1.162656   -1.881658    0.503426
     13          6    90000002        2.454681   -1.204343    0.012019
     14          6    90000002        3.203005   -0.471761    1.133737
     15          6    90000002        4.607990    0.103117    0.817229
     16          6    90000002        5.105921    0.832606    2.075545
     17          7    20001014        5.504067   -1.003779    0.511681
     18          6    20001002        6.772255   -0.789449    0.054714
     19          6    20001001        7.436575   -1.994385   -0.571075
     20          8    20001024        7.324549    0.272071    0.140090
     21          6    20001002        4.501176    0.999903   -0.437000
     22          8    20001024        4.539245    0.513165   -1.534982
     23          7    20001014        4.263172    2.315098   -0.243097
     24          6    20001001        4.202363    3.219893   -1.372633
     25          7    20001014       -5.992044   -0.764283    0.357414
     26          6    20001002       -6.146853    0.262923    1.240904
     27          6    20001001       -7.462414    0.272623    1.991454
     28          8    20001024       -5.301318    1.092563    1.422309
     29          1    20001035       -4.752340    3.378415   -0.565738
     30          1    20001035       -3.062132    2.917165   -0.692698
     31          1    20001035       -3.751917    3.274282    0.885959
     32          1    20001029       -4.797504    1.195987    0.920017
     33          1    20001034       -4.774729   -1.406922   -2.761886
     34          1    20001034       -5.840232   -2.419767   -1.787975
     35          1    20001034       -6.361008   -0.825021   -2.332251
     36          1    20001034       -4.267320   -2.640842    0.091439
     37          1    20001034       -3.551172   -1.265296    0.877517
     38          1    20001034       -2.100500   -2.817397   -0.551060
     39          1    20001034       -2.812376   -2.098677   -1.960913
     40          1    20001034       -1.831233    0.095007   -1.362680
     41          1    20001034       -0.643714   -1.153889   -1.520180
     42          1    20001033       -1.574298    0.202418    1.050876
     43          1    20001033        0.343231   -0.579248    2.075295
     44          1    20001034        0.736856   -2.438996   -0.322125
     45          1    20001034        1.415778   -2.616487    1.266675
     46          1    20001034        3.081406   -1.971927   -0.433408
     47          1    20001034        2.215297   -0.514837   -0.786797
     48          1    20001034        3.326484   -1.141101    1.982426
     49          1    20001034        2.590726    0.354098    1.476406
     50          1    20001034        5.245017    0.104694    2.866352
     51          1    20001034        4.376751    1.556316    2.424739
     52          1    20001034        6.050221    1.326718    1.902657
     53          1    20001029        5.064192   -1.818706    0.149582
     54          1    20001034        8.506851   -1.855289   -0.556113
     55          1    20001034        7.109850   -2.072148   -1.603707
     56          1    20001034        7.177803   -2.914985   -0.059297
     57          1    20001029        4.476164    2.708403    0.643049
     58          1    20001035        3.884953    4.192306   -1.019666
     59          1    20001035        3.485505    2.855536   -2.093732
     60          1    20001035        5.165071    3.315410   -1.864388
     61          1    20001029       -6.798865   -1.319977    0.179113
     62          1    20001034       -7.341863    0.844487    2.899975
     63          1    20001034       -7.805375   -0.727465    2.231770
     64          1    20001034       -8.218561    0.752682    1.378604
 ---------------------------------------------------------------------

 SCF Done:  E(RHF) =  -1295.17148705     A.U. after   15 cycles

 The electronic state is 1-A.
 Alpha  occ. eigenvalues --  -20.58675 -20.51588 -20.50997 -20.47259 -15.63820
 Alpha  occ. eigenvalues --  -15.57302 -15.57003 -15.43147 -11.42381 -11.33797
 Alpha  occ. eigenvalues --  -11.33086 -11.29232 -11.28822 -11.28036 -11.27965
 Alpha  occ. eigenvalues --  -11.24395 -11.22674 -11.22504 -11.22497 -11.22122
 Alpha  occ. eigenvalues --  -11.21602 -11.21523 -11.21469 -11.21260 -11.20906
 Alpha  occ. eigenvalues --  -11.20672 -11.20269 -11.20113  -1.61732  -1.38847
 Alpha  occ. eigenvalues --   -1.37554  -1.34480  -1.30212  -1.23017  -1.22017
 Alpha  occ. eigenvalues --   -1.19458  -1.09866  -1.08984  -1.07011  -1.05187
 Alpha  occ. eigenvalues --   -1.02765  -0.99518  -0.98461  -0.98316  -0.94549
 Alpha  occ. eigenvalues --   -0.94044  -0.92367  -0.90598  -0.86611  -0.85121
 Alpha  occ. eigenvalues --   -0.82226  -0.81220  -0.79050  -0.78759  -0.76308
 Alpha  occ. eigenvalues --   -0.73400  -0.71146  -0.70639  -0.70120  -0.67876
 Alpha  occ. eigenvalues --   -0.67326  -0.65619  -0.65301  -0.63687  -0.63004
 Alpha  occ. eigenvalues --   -0.62735  -0.61511  -0.61189  -0.60971  -0.60763
 Alpha  occ. eigenvalues --   -0.60458  -0.59930  -0.59679  -0.58687  -0.58125
 Alpha  occ. eigenvalues --   -0.57734  -0.57249  -0.56639  -0.55909  -0.55735
 Alpha  occ. eigenvalues --   -0.55625  -0.54831  -0.54384  -0.54232  -0.54153
 Alpha  occ. eigenvalues --   -0.53075  -0.52486  -0.51611  -0.51470  -0.50569
 Alpha  occ. eigenvalues --   -0.49999  -0.49309  -0.48888  -0.48157  -0.47909
 Alpha  occ. eigenvalues --   -0.47330  -0.46658  -0.45625  -0.43552  -0.43297
 Alpha  occ. eigenvalues --   -0.40944  -0.40586  -0.38283  -0.37808  -0.37694
 Alpha  occ. eigenvalues --   -0.33255  -0.33202  -0.28321
 Alpha virt. eigenvalues --    0.12497   0.18374   0.18777   0.20189   0.22138
 Alpha virt. eigenvalues --    0.22307   0.22597   0.23404   0.23837   0.24510
 Alpha virt. eigenvalues --    0.25613   0.26141   0.26682   0.27083   0.27924

 Mulliken atomic charges:
              1
     1  C   -0.252226
     2  N   -0.912535
     3  C    0.750628
     4  O   -0.670112
     5  C    0.078616
     6  C   -0.484762
     7  C   -0.272455
     8  C   -0.316103
     9  C   -0.372736
    10  C   -0.179937
    11  C   -0.182542
    12  C   -0.350751
    13  C   -0.309782
    14  C   -0.328739
    15  C    0.090744
    16  C   -0.509592
    17  N   -0.787732
    18  C    0.767466
    19  C   -0.595514
    20  O   -0.614526
    21  C    0.821085
    22  O   -0.639954
    23  N   -0.805058
    24  C   -0.275389
    25  N   -0.808270
    26  C    0.746995
    27  C   -0.580578
    28  O   -0.282301
    29  H    0.133894
    30  H    0.168952
    31  H    0.133822
    32  H    0.284487
    33  H    0.230476
    34  H    0.146786
    35  H    0.175130
    36  H    0.149377
    37  H    0.181475
    38  H    0.159224
    39  H    0.168003
    40  H    0.227891
    41  H    0.167078
    42  H    0.194280
    43  H    0.166115
    44  H    0.175492
    45  H    0.156218
    46  H    0.147677
    47  H    0.200281
    48  H    0.171622
    49  H    0.187278
    50  H    0.182484
    51  H    0.149260
    52  H    0.225188
    53  H    0.389890
    54  H    0.209988
    55  H    0.209269
    56  H    0.175850
    57  H    0.394871
    58  H    0.164956
    59  H    0.201109
    60  H    0.182985
    61  H    0.404547
    62  H    0.229870
    63  H    0.208126
    64  H    0.222113
 Sum of Mulliken atomic charges =   0.00000

 Dipole moment (field-independent basis, Debye):
    X=             -8.8509    Y=             -4.1769    Z=              5.9947  Tot=             11.4770
 Quadrupole moment (field-independent basis, Debye-Ang):
   XX=           -130.4224   YY=           -159.8544   ZZ=           -179.0459
   XY=              8.3604   XZ=            -14.6406   YZ=              7.5552

 Normal termination of Gaussian 09 at Thu Dec  5 16:22:14 2019.
