 Gaussian 09, Revision A.02,
 Gaussian 09:  EM64L-G09RevA.02 11-Jun-2009

 ---------------------------------
 #SP HF/6-31G* Geom=(ModRedundant)
 ---------------------------------

 ------------
 paramfit run
 ------------
 Symbolic Z-matrix:
 Charge =  0 Multiplicity = 1

                         Standard orientation:
 ---------------------------------------------------------------------
 Center     Atomic      Atomic             Coordinates (Angstroms)
 Number     Number       Type             X           Y           Z
 ---------------------------------------------------------------------
      1          6    20001001       -3.580130    3.292719    0.828772
      2          7    20001014       -4.022372    1.917613    0.725079
      3          6    20001002       -4.269826    1.378037   -0.491364
      4          8    20001024       -3.930019    1.907162   -1.513276
      5          6    90000001       -4.894110   -0.028931   -0.501087
      6          6    90000002       -5.529022   -0.299116   -1.869198
      7          6    90000002       -3.818010   -1.093373   -0.153847
      8          6    90000002       -2.587268   -1.236868   -1.067257
      9          6    90000002       -1.414780   -0.260654   -0.846087
     10          6    20001004       -0.855511   -0.279481    0.557174
     11          6    20001004        0.215603   -0.924854    0.989569
     12          6    90000002        1.144218   -1.803944    0.186681
     13          6    90000002        2.475657   -1.134175   -0.198346
     14          6    90000002        3.305935   -0.720533    1.024131
     15          6    90000002        4.745529   -0.196865    0.783326
     16          6    90000002        5.329112    0.202739    2.148315
     17          7    20001014        5.541678   -1.274528    0.212082
     18          6    20001002        6.812534   -1.061081   -0.237834
     19          6    20001001        7.362617   -2.147350   -1.133508
     20          8    20001024        7.450990   -0.087586    0.051689
     21          6    20001002        4.683847    0.956348   -0.243816
     22          8    20001024        4.657663    0.718277   -1.421341
     23          7    20001014        4.557848    2.212002    0.237263
     24          6    20001001        4.545450    3.342500   -0.668289
     25          7    20001014       -5.897564   -0.152047    0.566318
     26          6    20001002       -6.991671   -0.962148    0.486697
     27          6    20001001       -7.698063   -1.219587    1.801556
     28          8    20001024       -7.376829   -1.428520   -0.547852
     29          1    20001035       -4.346476    3.988188    0.506303
     30          1    20001035       -2.702581    3.441005    0.216690
     31          1    20001035       -3.325562    3.497028    1.861151
     32          1    20001029       -4.535465    1.544708    1.489254
     33          1    20001034       -4.806615   -0.190589   -2.663731
     34          1    20001034       -5.928785   -1.308592   -1.888839
     35          1    20001034       -6.330374    0.400539   -2.056933
     36          1    20001034       -4.337338   -2.049097   -0.164289
     37          1    20001034       -3.494416   -0.934368    0.870011
     38          1    20001034       -2.206947   -2.242693   -0.914649
     39          1    20001034       -2.889487   -1.183939   -2.108044
     40          1    20001034       -1.720271    0.748142   -1.091790
     41          1    20001034       -0.641933   -0.521583   -1.560550
     42          1    20001033       -1.401484    0.309297    1.276457
     43          1    20001033        0.468681   -0.816759    2.032655
     44          1    20001034        0.656181   -2.135368   -0.721858
     45          1    20001034        1.353849   -2.703771    0.763707
     46          1    20001034        3.027838   -1.831157   -0.822597
     47          1    20001034        2.275237   -0.271757   -0.820357
     48          1    20001034        3.393616   -1.565528    1.703713
     49          1    20001034        2.770581    0.054411    1.560049
     50          1    20001034        5.426302   -0.687853    2.758216
     51          1    20001034        4.669132    0.885549    2.673271
     52          1    20001034        6.306315    0.650900    2.048484
     53          1    20001029        5.029073   -1.956280   -0.298958
     54          1    20001034        8.440720   -2.094902   -1.131239
     55          1    20001034        7.007617   -1.974409   -2.145037
     56          1    20001034        7.041455   -3.135252   -0.821597
     57          1    20001029        4.821868    2.386459    1.178097
     58          1    20001035        4.316049    4.235893   -0.102474
     59          1    20001035        3.785402    3.197880   -1.421972
     60          1    20001035        5.501482    3.470608   -1.165626
     61          1    20001029       -5.579617    0.073368    1.482639
     62          1    20001034       -8.716497   -1.517053    1.598382
     63          1    20001034       -7.693493   -0.348757    2.447455
     64          1    20001034       -7.198283   -2.030532    2.321545
 ---------------------------------------------------------------------

 SCF Done:  E(RHF) =  -1295.59682290     A.U. after   14 cycles

 The electronic state is 1-A.
 Alpha  occ. eigenvalues --  -20.53202 -20.52732 -20.52086 -20.51661 -15.59726
 Alpha  occ. eigenvalues --  -15.59659 -15.57990 -15.57563 -11.35951 -11.34960
 Alpha  occ. eigenvalues --  -11.34291 -11.33748 -11.28910 -11.28626 -11.26615
 Alpha  occ. eigenvalues --  -11.25092 -11.24237 -11.23452 -11.23090 -11.22557
 Alpha  occ. eigenvalues --  -11.22533 -11.22378 -11.22311 -11.22125 -11.22091
 Alpha  occ. eigenvalues --  -11.21877 -11.21528 -11.19311  -1.40446  -1.39928
 Alpha  occ. eigenvalues --   -1.39419  -1.38146  -1.26040  -1.23593  -1.23501
 Alpha  occ. eigenvalues --   -1.22700  -1.10691  -1.09077  -1.07175  -1.04210
 Alpha  occ. eigenvalues --   -1.01153  -0.99165  -0.98714  -0.96858  -0.95038
 Alpha  occ. eigenvalues --   -0.94423  -0.91893  -0.87374  -0.85880  -0.82739
 Alpha  occ. eigenvalues --   -0.81223  -0.80170  -0.79508  -0.76945  -0.76866
 Alpha  occ. eigenvalues --   -0.74054  -0.71897  -0.71209  -0.68143  -0.67723
 Alpha  occ. eigenvalues --   -0.66911  -0.66131  -0.64816  -0.64342  -0.63933
 Alpha  occ. eigenvalues --   -0.63229  -0.62762  -0.61854  -0.61469  -0.61277
 Alpha  occ. eigenvalues --   -0.61093  -0.60233  -0.59395  -0.58738  -0.58651
 Alpha  occ. eigenvalues --   -0.57916  -0.57683  -0.56555  -0.56351  -0.56202
 Alpha  occ. eigenvalues --   -0.56058  -0.55134  -0.54850  -0.54338  -0.53606
 Alpha  occ. eigenvalues --   -0.53348  -0.53120  -0.52552  -0.52277  -0.51636
 Alpha  occ. eigenvalues --   -0.51253  -0.50046  -0.49780  -0.48899  -0.48462
 Alpha  occ. eigenvalues --   -0.47988  -0.47144  -0.46420  -0.44438  -0.43427
 Alpha  occ. eigenvalues --   -0.41561  -0.41104  -0.40944  -0.40175  -0.38901
 Alpha  occ. eigenvalues --   -0.38356  -0.38299  -0.34552
 Alpha virt. eigenvalues --    0.17126   0.17890   0.18636   0.19582   0.19607
 Alpha virt. eigenvalues --    0.21543   0.21903   0.22927   0.23205   0.23947
 Alpha virt. eigenvalues --    0.25079   0.25843   0.26223   0.26606   0.27418

 Mulliken atomic charges:
              1
     1  C   -0.282372
     2  N   -0.794984
     3  C    0.818061
     4  O   -0.612740
     5  C    0.054359
     6  C   -0.469595
     7  C   -0.294074
     8  C   -0.317793
     9  C   -0.373719
    10  C   -0.174858
    11  C   -0.176299
    12  C   -0.353848
    13  C   -0.310878
    14  C   -0.328890
    15  C    0.091147
    16  C   -0.509494
    17  N   -0.787594
    18  C    0.767211
    19  C   -0.595719
    20  O   -0.614068
    21  C    0.820559
    22  O   -0.638909
    23  N   -0.806278
    24  C   -0.275448
    25  N   -0.825573
    26  C    0.762321
    27  C   -0.589562
    28  O   -0.594020
    29  H    0.180540
    30  H    0.209959
    31  H    0.168635
    32  H    0.371214
    33  H    0.184644
    34  H    0.224845
    35  H    0.177093
    36  H    0.181032
    37  H    0.151277
    38  H    0.163614
    39  H    0.181848
    40  H    0.205296
    41  H    0.175474
    42  H    0.171575
    43  H    0.168252
    44  H    0.179069
    45  H    0.160880
    46  H    0.151775
    47  H    0.199062
    48  H    0.173433
    49  H    0.183885
    50  H    0.183761
    51  H    0.147613
    52  H    0.226685
    53  H    0.390075
    54  H    0.211200
    55  H    0.209674
    56  H    0.176583
    57  H    0.395136
    58  H    0.164096
    59  H    0.199575
    60  H    0.185408
    61  H    0.366821
    62  H    0.220801
    63  H    0.175223
    64  H    0.197008
 Sum of Mulliken atomic charges =   0.00000

 Dipole moment (field-independent basis, Debye):
    X=             -1.8697    Y=             -0.3858    Z=              7.6330  Tot=              7.8682
 Quadrupole moment (field-independent basis, Debye-Ang):
   XX=           -209.3593   YY=           -158.8121   ZZ=           -170.7295
   XY=            -14.1336   XZ=            -26.0621   YZ=             10.4571

 Normal termination of Gaussian 09 at Thu Dec  5 16:46:19 2019.
