 Gaussian 09, Revision A.02,
 Gaussian 09:  EM64L-G09RevA.02 11-Jun-2009

 ---------------------------------
 #SP HF/6-31G* Geom=(ModRedundant)
 ---------------------------------

 ------------
 paramfit run
 ------------
 Symbolic Z-matrix:
 Charge =  0 Multiplicity = 1

                         Standard orientation:
 ---------------------------------------------------------------------
 Center     Atomic      Atomic             Coordinates (Angstroms)
 Number     Number       Type             X           Y           Z
 ---------------------------------------------------------------------
      1          6    20001001       -3.656983    3.289754    0.978098
      2          7    20001014       -4.107768    1.934452    0.738942
      3          6    20001002       -4.332904    1.511438   -0.526950
      4          8    20001024       -3.966693    2.128846   -1.488429
      5          6    90000001       -4.967984    0.117578   -0.679311
      6          6    90000002       -5.575026   -0.019417   -2.079516
      7          6    90000002       -3.908204   -0.984891   -0.409067
      8          6    90000002       -2.659007   -1.056029   -1.305774
      9          6    90000002       -1.483906   -0.115949   -0.971074
     10          6    20001004       -0.955549   -0.269209    0.435918
     11          6    20001004        0.100717   -0.962180    0.829427
     12          6    90000002        1.039614   -1.772925   -0.031340
     13          6    90000002        2.384413   -1.083842   -0.325013
     14          6    90000002        3.191085   -0.792557    0.947522
     15          6    90000002        4.639704   -0.263276    0.786241
     16          6    90000002        5.196527    0.003379    2.194180
     17          7    20001014        5.439540   -1.291720    0.135014
     18          6    20001002        6.721563   -1.050439   -0.266556
     19          6    20001001        7.282408   -2.055196   -1.246721
     20          8    20001024        7.361264   -0.114053    0.124730
     21          6    20001002        4.609605    0.980011   -0.131396
     22          8    20001024        4.607225    0.851441   -1.326131
     23          7    20001014        4.483120    2.187325    0.460530
     24          6    20001001        4.499459    3.396331   -0.337118
     25          7    20001014       -5.995431   -0.093161    0.350918
     26          6    20001002       -6.447799   -1.323086    0.728171
     27          6    20001001       -7.226339   -1.351150    2.027097
     28          8    20001024       -6.256165   -2.310279    0.076354
     29          1    20001035       -4.410564    4.019481    0.705035
     30          1    20001035       -2.765141    3.484956    0.400831
     31          1    20001035       -3.423383    3.395782    2.030021
     32          1    20001029       -4.640354    1.497999    1.454586
     33          1    20001034       -4.834619    0.154504   -2.845337
     34          1    20001034       -5.982271   -1.018801   -2.200431
     35          1    20001034       -6.366509    0.702443   -2.218797
     36          1    20001034       -4.434756   -1.930413   -0.518383
     37          1    20001034       -3.605769   -0.923874    0.631649
     38          1    20001034       -2.290108   -2.075345   -1.238498
     39          1    20001034       -2.938020   -0.904675   -2.343376
     40          1    20001034       -1.775941    0.914139   -1.129184
     41          1    20001034       -0.697754   -0.317762   -1.690150
     42          1    20001033       -1.512389    0.256356    1.194749
     43          1    20001033        0.331831   -0.952923    1.883117
     44          1    20001034        0.568895   -2.014591   -0.976584
     45          1    20001034        1.229453   -2.724011    0.464635
     46          1    20001034        2.944527   -1.725943   -0.999071
     47          1    20001034        2.204467   -0.165963   -0.869024
     48          1    20001034        3.257205   -1.697261    1.548084
     49          1    20001034        2.650340   -0.064876    1.541176
     50          1    20001034        5.273311   -0.940417    2.721372
     51          1    20001034        4.530696    0.641564    2.765819
     52          1    20001034        6.179204    0.449106    2.156582
     53          1    20001029        4.932806   -1.918502   -0.447289
     54          1    20001034        8.360588   -2.013872   -1.217000
     55          1    20001034        6.950944   -1.786509   -2.245252
     56          1    20001034        6.946682   -3.064349   -1.033929
     57          1    20001029        4.727930    2.271948    1.418766
     58          1    20001035        4.264874    4.236171    0.303631
     59          1    20001035        3.754909    3.329135   -1.116704
     60          1    20001035        5.467101    3.560117   -0.800364
     61          1    20001029       -6.086771    0.636879    1.021922
     62          1    20001034       -7.851274   -2.232198    2.040633
     63          1    20001034       -7.839094   -0.466263    2.157693
     64          1    20001034       -6.530670   -1.408000    2.858129
 ---------------------------------------------------------------------

 SCF Done:  E(RHF) =  -1295.60032802     A.U. after   14 cycles

 The electronic state is 1-A.
 Alpha  occ. eigenvalues --  -20.53724 -20.53396 -20.51955 -20.51526 -15.60284
 Alpha  occ. eigenvalues --  -15.59772 -15.57871 -15.57411 -11.36147 -11.35598
 Alpha  occ. eigenvalues --  -11.34158 -11.33612 -11.28948 -11.28459 -11.27007
 Alpha  occ. eigenvalues --  -11.25007 -11.24476 -11.23231 -11.22411 -11.22196
 Alpha  occ. eigenvalues --  -11.22102 -11.21877 -11.21730 -11.21698 -11.21319
 Alpha  occ. eigenvalues --  -11.21165 -11.20987 -11.20542  -1.40917  -1.40408
 Alpha  occ. eigenvalues --   -1.39285  -1.38013  -1.26463  -1.23791  -1.23441
 Alpha  occ. eigenvalues --   -1.22581  -1.10287  -1.08757  -1.06993  -1.03942
 Alpha  occ. eigenvalues --   -1.00889  -0.99298  -0.98643  -0.97343  -0.94896
 Alpha  occ. eigenvalues --   -0.94168  -0.91523  -0.87329  -0.85776  -0.82766
 Alpha  occ. eigenvalues --   -0.81401  -0.80368  -0.79380  -0.76812  -0.76361
 Alpha  occ. eigenvalues --   -0.74348  -0.71576  -0.70771  -0.68029  -0.67867
 Alpha  occ. eigenvalues --   -0.66636  -0.66051  -0.65040  -0.64127  -0.63746
 Alpha  occ. eigenvalues --   -0.63434  -0.63082  -0.61639  -0.61378  -0.61281
 Alpha  occ. eigenvalues --   -0.60995  -0.60445  -0.59265  -0.58681  -0.58575
 Alpha  occ. eigenvalues --   -0.57820  -0.57628  -0.56803  -0.56541  -0.56245
 Alpha  occ. eigenvalues --   -0.56055  -0.55227  -0.54758  -0.54591  -0.53814
 Alpha  occ. eigenvalues --   -0.53463  -0.52958  -0.52378  -0.52098  -0.51831
 Alpha  occ. eigenvalues --   -0.51032  -0.49950  -0.49641  -0.48628  -0.47725
 Alpha  occ. eigenvalues --   -0.47366  -0.46738  -0.46147  -0.43960  -0.43701
 Alpha  occ. eigenvalues --   -0.41417  -0.41109  -0.40971  -0.40431  -0.39121
 Alpha  occ. eigenvalues --   -0.38767  -0.38223  -0.34076
 Alpha virt. eigenvalues --    0.17548   0.17829   0.18206   0.19248   0.19749
 Alpha virt. eigenvalues --    0.21687   0.22079   0.23163   0.23368   0.24610
 Alpha virt. eigenvalues --    0.25285   0.26107   0.26672   0.26758   0.27292

 Mulliken atomic charges:
              1
     1  C   -0.285659
     2  N   -0.785173
     3  C    0.785534
     4  O   -0.612556
     5  C    0.102709
     6  C   -0.461844
     7  C   -0.359249
     8  C   -0.311638
     9  C   -0.372313
    10  C   -0.171217
    11  C   -0.177174
    12  C   -0.353269
    13  C   -0.310881
    14  C   -0.328625
    15  C    0.091032
    16  C   -0.509452
    17  N   -0.787548
    18  C    0.767211
    19  C   -0.595681
    20  O   -0.614465
    21  C    0.820675
    22  O   -0.639003
    23  N   -0.806249
    24  C   -0.275195
    25  N   -0.835750
    26  C    0.765770
    27  C   -0.592265
    28  O   -0.601297
    29  H    0.178035
    30  H    0.213714
    31  H    0.172127
    32  H    0.370310
    33  H    0.194123
    34  H    0.196442
    35  H    0.167197
    36  H    0.264039
    37  H    0.153313
    38  H    0.164828
    39  H    0.172108
    40  H    0.198585
    41  H    0.172052
    42  H    0.170498
    43  H    0.166836
    44  H    0.179795
    45  H    0.160873
    46  H    0.150993
    47  H    0.198309
    48  H    0.173608
    49  H    0.183716
    50  H    0.183864
    51  H    0.147455
    52  H    0.226160
    53  H    0.390345
    54  H    0.210813
    55  H    0.209535
    56  H    0.176793
    57  H    0.395014
    58  H    0.163585
    59  H    0.199420
    60  H    0.185126
    61  H    0.366779
    62  H    0.222156
    63  H    0.181466
    64  H    0.193557
 Sum of Mulliken atomic charges =   0.00000

 Dipole moment (field-independent basis, Debye):
    X=             -3.7523    Y=              1.0720    Z=              6.5203  Tot=              7.5989
 Quadrupole moment (field-independent basis, Debye-Ang):
   XX=           -187.4850   YY=           -166.6825   ZZ=           -167.9171
   XY=            -22.6545   XZ=            -20.0246   YZ=             13.7442

 Normal termination of Gaussian 09 at Thu Dec  5 16:10:28 2019.
