 Gaussian 09, Revision A.02,
 Gaussian 09:  EM64L-G09RevA.02 11-Jun-2009

 ---------------------------------
 #SP HF/6-31G* Geom=(ModRedundant)
 ---------------------------------

 ------------
 paramfit run
 ------------
 Symbolic Z-matrix:
 Charge =  0 Multiplicity = 1

                         Standard orientation:
 ---------------------------------------------------------------------
 Center     Atomic      Atomic             Coordinates (Angstroms)
 Number     Number       Type             X           Y           Z
 ---------------------------------------------------------------------
      1          6    20001001       -3.610067    3.171024    0.798430
      2          7    20001014       -4.024169    1.785001    0.729850
      3          6    20001002       -4.267813    1.211973   -0.471976
      4          8    20001024       -3.945423    1.723852   -1.508215
      5          6    90000001       -4.862669   -0.207459   -0.444658
      6          6    90000002       -5.500234   -0.522814   -1.801826
      7          6    90000002       -3.762485   -1.240937   -0.079803
      8          6    90000002       -2.534673   -1.380351   -0.997779
      9          6    90000002       -1.381457   -0.375142   -0.807292
     10          6    20001004       -0.813274   -0.349397    0.592274
     11          6    20001004        0.273712   -0.962114    1.032498
     12          6    90000002        1.215488   -1.840419    0.244215
     13          6    90000002        2.530270   -1.152465   -0.165212
     14          6    90000002        3.359265   -0.693100    1.041712
     15          6    90000002        4.786113   -0.145545    0.779160
     16          6    90000002        5.369642    0.298030    2.130523
     17          7    20001014        5.601025   -1.219624    0.227975
     18          6    20001002        6.864354   -0.990545   -0.235254
     19          6    20001001        7.431436   -2.085947   -1.108935
     20          8    20001024        7.484144    0.002495    0.027183
     21          6    20001002        4.694062    0.981681   -0.274222
     22          8    20001024        4.665588    0.715507   -1.445660
     23          7    20001014        4.544875    2.245419    0.178206
     24          6    20001001        4.503320    3.353820   -0.753418
     25          7    20001014       -5.856736   -0.326200    0.631986
     26          6    20001002       -7.166004   -0.644284    0.421484
     27          6    20001001       -7.932789   -1.063160    1.658700
     28          8    20001024       -7.679624   -0.586207   -0.659702
     29          1    20001035       -4.392724    3.842706    0.464901
     30          1    20001035       -2.739593    3.323019    0.177225
     31          1    20001035       -3.353455    3.404770    1.824035
     32          1    20001029       -4.524651    1.419618    1.505929
     33          1    20001034       -4.785160   -0.418060   -2.603467
     34          1    20001034       -5.878971   -1.540533   -1.795207
     35          1    20001034       -6.317144    0.155494   -2.000526
     36          1    20001034       -4.261824   -2.207189   -0.064448
     37          1    20001034       -3.435969   -1.051244    0.937883
     38          1    20001034       -2.132527   -2.374221   -0.824238
     39          1    20001034       -2.844343   -1.358169   -2.037484
     40          1    20001034       -1.709428    0.621058   -1.074468
     41          1    20001034       -0.607757   -0.636737   -1.520587
     42          1    20001033       -1.366960    0.244695    1.301216
     43          1    20001033        0.530908   -0.824314    2.071065
     44          1    20001034        0.728875   -2.203141   -0.653062
     45          1    20001034        1.447392   -2.721902    0.840707
     46          1    20001034        3.093006   -1.852345   -0.776662
     47          1    20001034        2.308078   -0.309240   -0.805862
     48          1    20001034        3.468737   -1.519891    1.740259
     49          1    20001034        2.811182    0.082977    1.562921
     50          1    20001034        5.489142   -0.575777    2.760412
     51          1    20001034        4.698816    0.979180    2.643756
     52          1    20001034        6.336652    0.763856    2.013745
     53          1    20001029        5.099607   -1.923666   -0.263570
     54          1    20001034        8.508205   -2.011150   -1.115065
     55          1    20001034        7.066676   -1.944216   -2.121845
     56          1    20001034        7.132876   -3.072681   -0.771890
     57          1    20001029        4.810996    2.447371    1.112928
     58          1    20001035        4.258833    4.255325   -0.207124
     59          1    20001035        3.741820    3.175820   -1.498441
     60          1    20001035        5.453388    3.489968   -1.259964
     61          1    20001029       -5.490037   -0.535312    1.533845
     62          1    20001034       -8.988130   -0.914202    1.482516
     63          1    20001034       -7.627149   -0.508281    2.538611
     64          1    20001034       -7.758999   -2.118048    1.845273
 ---------------------------------------------------------------------

 SCF Done:  E(RHF) =  -1295.59930727     A.U. after   14 cycles

 The electronic state is 1-A.
 Alpha  occ. eigenvalues --  -20.52686 -20.52558 -20.52101 -20.51665 -15.59612
 Alpha  occ. eigenvalues --  -15.58877 -15.57986 -15.57581 -11.35819 -11.34306
 Alpha  occ. eigenvalues --  -11.34302 -11.33753 -11.28882 -11.28642 -11.26082
 Alpha  occ. eigenvalues --  -11.25074 -11.24182 -11.23643 -11.23480 -11.22625
 Alpha  occ. eigenvalues --  -11.22552 -11.22422 -11.22406 -11.22372 -11.22180
 Alpha  occ. eigenvalues --  -11.21887 -11.21622 -11.19464  -1.40257  -1.39509
 Alpha  occ. eigenvalues --   -1.39429  -1.38154  -1.25642  -1.23610  -1.23038
 Alpha  occ. eigenvalues --   -1.22696  -1.10786  -1.09191  -1.07217  -1.04251
 Alpha  occ. eigenvalues --   -1.01205  -0.99136  -0.98696  -0.96331  -0.95076
 Alpha  occ. eigenvalues --   -0.94530  -0.92092  -0.87356  -0.85835  -0.82738
 Alpha  occ. eigenvalues --   -0.81007  -0.79611  -0.79352  -0.77204  -0.76949
 Alpha  occ. eigenvalues --   -0.73307  -0.71990  -0.71290  -0.68604  -0.68004
 Alpha  occ. eigenvalues --   -0.66887  -0.65849  -0.64617  -0.63981  -0.63691
 Alpha  occ. eigenvalues --   -0.63004  -0.62673  -0.61875  -0.61483  -0.61248
 Alpha  occ. eigenvalues --   -0.61087  -0.60157  -0.59392  -0.58759  -0.58427
 Alpha  occ. eigenvalues --   -0.58124  -0.57726  -0.56447  -0.56233  -0.55839
 Alpha  occ. eigenvalues --   -0.55640  -0.55085  -0.54856  -0.54371  -0.53649
 Alpha  occ. eigenvalues --   -0.53253  -0.53104  -0.52628  -0.52100  -0.51794
 Alpha  occ. eigenvalues --   -0.51330  -0.50127  -0.49810  -0.49150  -0.48584
 Alpha  occ. eigenvalues --   -0.48185  -0.46887  -0.46467  -0.44577  -0.43736
 Alpha  occ. eigenvalues --   -0.41572  -0.41118  -0.40623  -0.39507  -0.38908
 Alpha  occ. eigenvalues --   -0.38359  -0.38235  -0.34626
 Alpha virt. eigenvalues --    0.17147   0.18149   0.19239   0.19594   0.19852
 Alpha virt. eigenvalues --    0.21529   0.21889   0.22888   0.23197   0.23898
 Alpha virt. eigenvalues --    0.25257   0.25873   0.26009   0.26682   0.27447

 Mulliken atomic charges:
              1
     1  C   -0.280878
     2  N   -0.792791
     3  C    0.817607
     4  O   -0.615289
     5  C    0.073252
     6  C   -0.463568
     7  C   -0.310876
     8  C   -0.315678
     9  C   -0.373911
    10  C   -0.176794
    11  C   -0.176363
    12  C   -0.353798
    13  C   -0.310800
    14  C   -0.328985
    15  C    0.091148
    16  C   -0.509523
    17  N   -0.787613
    18  C    0.767236
    19  C   -0.595719
    20  O   -0.613937
    21  C    0.820553
    22  O   -0.638985
    23  N   -0.806200
    24  C   -0.275542
    25  N   -0.837655
    26  C    0.753420
    27  C   -0.587611
    28  O   -0.588077
    29  H    0.179376
    30  H    0.205990
    31  H    0.166347
    32  H    0.378941
    33  H    0.187369
    34  H    0.165268
    35  H    0.226228
    36  H    0.175674
    37  H    0.154146
    38  H    0.163800
    39  H    0.183995
    40  H    0.208860
    41  H    0.175751
    42  H    0.173899
    43  H    0.168743
    44  H    0.178363
    45  H    0.160651
    46  H    0.151722
    47  H    0.199399
    48  H    0.173278
    49  H    0.184217
    50  H    0.183648
    51  H    0.147823
    52  H    0.226774
    53  H    0.389943
    54  H    0.211265
    55  H    0.209666
    56  H    0.176443
    57  H    0.395182
    58  H    0.164382
    59  H    0.199711
    60  H    0.185344
    61  H    0.373966
    62  H    0.220168
    63  H    0.173581
    64  H    0.197465
 Sum of Mulliken atomic charges =   0.00000

 Dipole moment (field-independent basis, Debye):
    X=             -1.6071    Y=             -1.9480    Z=              7.6713  Tot=              8.0763
 Quadrupole moment (field-independent basis, Debye-Ang):
   XX=           -212.5985   YY=           -155.6605   ZZ=           -171.7898
   XY=             -3.6064   XZ=            -26.6062   YZ=             10.1304

 Normal termination of Gaussian 09 at Thu Dec  5 16:30:52 2019.
