 Gaussian 09, Revision A.02,
 Gaussian 09:  EM64L-G09RevA.02 11-Jun-2009

 ---------------------------------
 #SP HF/6-31G* Geom=(ModRedundant)
 ---------------------------------

 ------------
 paramfit run
 ------------
 Symbolic Z-matrix:
 Charge =  0 Multiplicity = 1

                         Standard orientation:
 ---------------------------------------------------------------------
 Center     Atomic      Atomic             Coordinates (Angstroms)
 Number     Number       Type             X           Y           Z
 ---------------------------------------------------------------------
      1          6    20001001       -3.954381    2.898727   -0.013692
      2          7    20001014       -4.301658    1.498416    0.111898
      3          6    20001002       -4.460299    0.740121   -0.998026
      4          8    20001024       -4.111203    1.107236   -2.085732
      5          6    90000001       -4.991099   -0.688221   -0.780140
      6          6    90000002       -5.546847   -1.235819   -2.098898
      7          6    90000002       -3.864484   -1.596866   -0.217374
      8          6    90000002       -2.588335   -1.808059   -1.051926
      9          6    90000002       -1.492330   -0.727094   -0.968715
     10          6    20001004       -0.994804   -0.462712    0.433015
     11          6    20001004        0.095974   -0.945316    1.005776
     12          6    90000002        1.113750   -1.881533    0.399656
     13          6    90000002        2.414536   -1.195186   -0.054713
     14          6    90000002        3.162116   -0.517929    1.101730
     15          6    90000002        4.573895    0.057594    0.818362
     16          6    90000002        5.070223    0.728115    2.109683
     17          7    20001014        5.462365   -1.043040    0.470862
     18          6    20001002        6.735147   -0.820501    0.030908
     19          6    20001001        7.393022   -2.003329   -0.642089
     20          8    20001024        7.295945    0.231489    0.164942
     21          6    20001002        4.482524    1.008178   -0.396861
     22          8    20001024        4.523245    0.568595   -1.514463
     23          7    20001014        4.254562    2.315905   -0.148132
     24          6    20001001        4.208489    3.268745   -1.238167
     25          7    20001014       -6.030104   -0.696030    0.259975
     26          6    20001002       -5.963559    0.046667    1.401747
     27          6    20001001       -7.267448    0.175899    2.161545
     28          8    20001024       -4.947036    0.551760    1.786070
     29          1    20001035       -4.749366    3.471337   -0.477445
     30          1    20001035       -3.062404    3.001096   -0.614209
     31          1    20001035       -3.758893    3.296329    0.974260
     32          1    20001029       -4.822380    1.227761    0.913072
     33          1    20001034       -4.798997   -1.215172   -2.876861
     34          1    20001034       -5.879130   -2.259384   -1.953506
     35          1    20001034       -6.382883   -0.638272   -2.431926
     36          1    20001034       -4.319851   -2.574577   -0.076160
     37          1    20001034       -3.596872   -1.240312    0.772340
     38          1    20001034       -2.150674   -2.742509   -0.712993
     39          1    20001034       -2.847628   -1.957833   -2.094858
     40          1    20001034       -1.851518    0.199501   -1.397399
     41          1    20001034       -0.673753   -1.051903   -1.601380
     42          1    20001033       -1.608650    0.201182    1.019999
     43          1    20001033        0.295743   -0.640479    2.021122
     44          1    20001034        0.688335   -2.399235   -0.451503
     45          1    20001034        1.355849   -2.650574    1.132157
     46          1    20001034        3.037433   -1.948474   -0.528983
     47          1    20001034        2.186007   -0.470023   -0.824611
     48          1    20001034        3.274608   -1.224062    1.921643
     49          1    20001034        2.554798    0.297851    1.475921
     50          1    20001034        5.198190   -0.034193    2.869348
     51          1    20001034        4.345107    1.442593    2.485330
     52          1    20001034        6.019762    1.220851    1.963650
     53          1    20001029        5.017802   -1.837811    0.071593
     54          1    20001034        8.464333   -1.874422   -0.614936
     55          1    20001034        7.072056   -2.033917   -1.678993
     56          1    20001034        7.123229   -2.942690   -0.171774
     57          1    20001029        4.465404    2.669009    0.755291
     58          1    20001035        3.897212    4.227904   -0.845685
     59          1    20001035        3.493033    2.941926   -1.978394
     60          1    20001035        5.175010    3.376762   -1.719752
     61          1    20001029       -6.941089   -0.957954   -0.045064
     62          1    20001034       -7.049016    0.420540    3.190821
     63          1    20001034       -7.859045   -0.731715    2.119123
     64          1    20001034       -7.852050    0.982586    1.731082
 ---------------------------------------------------------------------

 SCF Done:  E(RHF) =  -1295.50078260     A.U. after   14 cycles

 The electronic state is 1-A.
 Alpha  occ. eigenvalues --  -20.55944 -20.51668 -20.51127 -20.50148 -15.62067
 Alpha  occ. eigenvalues --  -15.57442 -15.57090 -15.50314 -11.39588 -11.33877
 Alpha  occ. eigenvalues --  -11.33212 -11.31900 -11.29132 -11.28067 -11.26182
 Alpha  occ. eigenvalues --  -11.24562 -11.22781 -11.22735 -11.22454 -11.22286
 Alpha  occ. eigenvalues --  -11.22189 -11.21721 -11.21649 -11.21569 -11.21345
 Alpha  occ. eigenvalues --  -11.21065 -11.20838 -11.20482  -1.48852  -1.38948
 Alpha  occ. eigenvalues --   -1.37664  -1.37126  -1.27532  -1.23108  -1.22157
 Alpha  occ. eigenvalues --   -1.19492  -1.10014  -1.09013  -1.06868  -1.04150
 Alpha  occ. eigenvalues --   -1.01991  -0.99572  -0.98402  -0.94786  -0.94281
 Alpha  occ. eigenvalues --   -0.93601  -0.91387  -0.87036  -0.85466  -0.85096
 Alpha  occ. eigenvalues --   -0.81963  -0.80121  -0.79096  -0.78812  -0.76427
 Alpha  occ. eigenvalues --   -0.72725  -0.71181  -0.70797  -0.70309  -0.67552
 Alpha  occ. eigenvalues --   -0.66826  -0.65766  -0.63909  -0.63771  -0.63287
 Alpha  occ. eigenvalues --   -0.63008  -0.61514  -0.61251  -0.60993  -0.60727
 Alpha  occ. eigenvalues --   -0.60487  -0.60299  -0.58938  -0.58866  -0.58222
 Alpha  occ. eigenvalues --   -0.57714  -0.57273  -0.56873  -0.56056  -0.55771
 Alpha  occ. eigenvalues --   -0.55584  -0.55181  -0.54481  -0.54306  -0.53769
 Alpha  occ. eigenvalues --   -0.52822  -0.52575  -0.51961  -0.51488  -0.51051
 Alpha  occ. eigenvalues --   -0.50317  -0.49848  -0.49368  -0.48371  -0.48068
 Alpha  occ. eigenvalues --   -0.47228  -0.46398  -0.45727  -0.44644  -0.43394
 Alpha  occ. eigenvalues --   -0.41052  -0.40672  -0.39363  -0.38586  -0.38395
 Alpha  occ. eigenvalues --   -0.37824  -0.34579  -0.33394
 Alpha virt. eigenvalues --    0.14583   0.18386   0.19534   0.20090   0.21203
 Alpha virt. eigenvalues --    0.22037   0.22456   0.23529   0.23764   0.24639
 Alpha virt. eigenvalues --    0.25673   0.26284   0.27098   0.27415   0.27937

 Mulliken atomic charges:
              1
     1  C   -0.273417
     2  N   -0.828128
     3  C    0.783469
     4  O   -0.645558
     5  C    0.069962
     6  C   -0.491092
     7  C   -0.299504
     8  C   -0.316985
     9  C   -0.372747
    10  C   -0.181259
    11  C   -0.181670
    12  C   -0.351584
    13  C   -0.309897
    14  C   -0.328781
    15  C    0.090664
    16  C   -0.509637
    17  N   -0.787611
    18  C    0.767429
    19  C   -0.595551
    20  O   -0.614525
    21  C    0.820955
    22  O   -0.639990
    23  N   -0.805315
    24  C   -0.275224
    25  N   -0.795673
    26  C    0.732958
    27  C   -0.587655
    28  O   -0.608004
    29  H    0.147457
    30  H    0.183320
    31  H    0.155779
    32  H    0.485443
    33  H    0.227129
    34  H    0.160277
    35  H    0.172361
    36  H    0.160704
    37  H    0.211201
    38  H    0.161947
    39  H    0.165791
    40  H    0.215264
    41  H    0.169157
    42  H    0.197617
    43  H    0.168632
    44  H    0.175340
    45  H    0.157784
    46  H    0.148196
    47  H    0.199064
    48  H    0.172504
    49  H    0.186863
    50  H    0.183043
    51  H    0.149171
    52  H    0.225284
    53  H    0.389946
    54  H    0.210183
    55  H    0.209143
    56  H    0.176126
    57  H    0.395095
    58  H    0.164633
    59  H    0.200198
    60  H    0.183531
    61  H    0.396387
    62  H    0.224994
    63  H    0.196134
    64  H    0.208671
 Sum of Mulliken atomic charges =   0.00000

 Dipole moment (field-independent basis, Debye):
    X=             -7.8021    Y=             -2.9595    Z=              4.2787  Tot=              9.3776
 Quadrupole moment (field-independent basis, Debye-Ang):
   XX=           -141.3374   YY=           -157.8586   ZZ=           -180.4661
   XY=              2.0183   XZ=             -6.1906   YZ=              8.3618

 Normal termination of Gaussian 09 at Thu Dec  5 16:10:55 2019.
