 Gaussian 09, Revision A.02,
 Gaussian 09:  EM64L-G09RevA.02 11-Jun-2009

 ---------------------------------
 #SP HF/6-31G* Geom=(ModRedundant)
 ---------------------------------

 ------------
 paramfit run
 ------------
 Symbolic Z-matrix:
 Charge =  0 Multiplicity = 1

                         Standard orientation:
 ---------------------------------------------------------------------
 Center     Atomic      Atomic             Coordinates (Angstroms)
 Number     Number       Type             X           Y           Z
 ---------------------------------------------------------------------
      1          6    20001001       -3.655662    3.065653    0.770760
      2          7    20001014       -4.046219    1.672250    0.714737
      3          6    20001002       -4.279916    1.084310   -0.481850
      4          8    20001024       -3.966061    1.592164   -1.522679
      5          6    90000001       -4.850652   -0.344687   -0.441679
      6          6    90000002       -5.482550   -0.683082   -1.795945
      7          6    90000002       -3.733186   -1.356035   -0.067449
      8          6    90000002       -2.503031   -1.482947   -0.984100
      9          6    90000002       -1.367037   -0.456667   -0.802709
     10          6    20001004       -0.799614   -0.408619    0.596577
     11          6    20001004        0.297517   -0.998824    1.042357
     12          6    90000002        1.254169   -1.868161    0.262086
     13          6    90000002        2.557183   -1.161775   -0.153534
     14          6    90000002        3.378070   -0.677518    1.049193
     15          6    90000002        4.795485   -0.108277    0.781717
     16          6    90000002        5.371185    0.357346    2.129016
     17          7    20001014        5.628566   -1.173351    0.240306
     18          6    20001002        6.887914   -0.927117   -0.224955
     19          6    20001001        7.473618   -2.020629   -1.088660
     20          8    20001024        7.490752    0.078616    0.028482
     21          6    20001002        4.684540    1.007636   -0.281841
     22          8    20001024        4.660780    0.730413   -1.450819
     23          7    20001014        4.513894    2.272714    0.159111
     24          6    20001001        4.453735    3.371764   -0.782522
     25          7    20001014       -5.842752   -0.470485    0.635978
     26          6    20001002       -7.190432   -0.421111    0.433512
     27          6    20001001       -8.032877   -0.919774    1.589256
     28          8    20001024       -7.677211   -0.003013   -0.578604
     29          1    20001035       -4.449524    3.720933    0.431141
     30          1    20001035       -2.787780    3.226732    0.148220
     31          1    20001035       -3.403222    3.312996    1.794209
     32          1    20001029       -4.540576    1.305491    1.494087
     33          1    20001034       -4.769214   -0.573500   -2.598489
     34          1    20001034       -5.843998   -1.706967   -1.780109
     35          1    20001034       -6.310796   -0.020535   -2.000801
     36          1    20001034       -4.216092   -2.330427   -0.043347
     37          1    20001034       -3.410106   -1.151624    0.948482
     38          1    20001034       -2.084140   -2.468251   -0.801549
     39          1    20001034       -2.812852   -1.475437   -2.023969
     40          1    20001034       -1.711786    0.531374   -1.078910
     41          1    20001034       -0.588894   -0.711573   -1.513589
     42          1    20001033       -1.363405    0.182411    1.300094
     43          1    20001033        0.552162   -0.847282    2.079638
     44          1    20001034        0.773924   -2.247189   -0.631876
     45          1    20001034        1.500865   -2.740147    0.866548
     46          1    20001034        3.131796   -1.857538   -0.758604
     47          1    20001034        2.320852   -0.328275   -0.801805
     48          1    20001034        3.501407   -1.495972    1.755208
     49          1    20001034        2.816832    0.093857    1.563336
     50          1    20001034        5.505357   -0.508568    2.766801
     51          1    20001034        4.688830    1.031660    2.636040
     52          1    20001034        6.330187    0.838405    2.008038
     53          1    20001029        5.139228   -1.890210   -0.244847
     54          1    20001034        8.548967   -1.927665   -1.095447
     55          1    20001034        7.106685   -1.894282   -2.102821
     56          1    20001034        7.191753   -3.009184   -0.742691
     57          1    20001029        4.776395    2.487607    1.091969
     58          1    20001035        4.193920    4.273912   -0.244427
     59          1    20001035        3.695488    3.174148   -1.525916
     60          1    20001035        5.401448    3.519387   -1.290263
     61          1    20001029       -5.534872   -0.956999    1.448420
     62          1    20001034       -9.022812   -0.494932    1.508556
     63          1    20001034       -7.602690   -0.664260    2.551129
     64          1    20001034       -8.114595   -2.000346    1.530208
 ---------------------------------------------------------------------

 SCF Done:  E(RHF) =  -1295.60725807     A.U. after   14 cycles

 The electronic state is 1-A.
 Alpha  occ. eigenvalues --  -20.52970 -20.52397 -20.52095 -20.51651 -15.59570
 Alpha  occ. eigenvalues --  -15.58398 -15.57966 -15.57575 -11.35862 -11.34301
 Alpha  occ. eigenvalues --  -11.34037 -11.33739 -11.28867 -11.28632 -11.25738
 Alpha  occ. eigenvalues --  -11.25048 -11.24244 -11.23950 -11.23473 -11.22636
 Alpha  occ. eigenvalues --  -11.22590 -11.22551 -11.22424 -11.22368 -11.22171
 Alpha  occ. eigenvalues --  -11.21875 -11.21656 -11.19428  -1.40359  -1.39420
 Alpha  occ. eigenvalues --   -1.39255  -1.38144  -1.25520  -1.23604  -1.22723
 Alpha  occ. eigenvalues --   -1.22677  -1.10816  -1.09237  -1.07217  -1.04252
 Alpha  occ. eigenvalues --   -1.01240  -0.99165  -0.98710  -0.96032  -0.95096
 Alpha  occ. eigenvalues --   -0.94573  -0.92180  -0.87327  -0.85793  -0.82771
 Alpha  occ. eigenvalues --   -0.81116  -0.79553  -0.78978  -0.77267  -0.76935
 Alpha  occ. eigenvalues --   -0.72621  -0.72009  -0.71301  -0.68988  -0.68035
 Alpha  occ. eigenvalues --   -0.66866  -0.65864  -0.64586  -0.63914  -0.63571
 Alpha  occ. eigenvalues --   -0.62788  -0.62686  -0.61869  -0.61476  -0.61260
 Alpha  occ. eigenvalues --   -0.61074  -0.60160  -0.59391  -0.58757  -0.58368
 Alpha  occ. eigenvalues --   -0.58217  -0.57732  -0.56438  -0.56223  -0.55672
 Alpha  occ. eigenvalues --   -0.55320  -0.55034  -0.54874  -0.54795  -0.54177
 Alpha  occ. eigenvalues --   -0.53224  -0.53084  -0.52498  -0.51949  -0.51325
 Alpha  occ. eigenvalues --   -0.51162  -0.50248  -0.49815  -0.49302  -0.48572
 Alpha  occ. eigenvalues --   -0.48339  -0.46768  -0.46475  -0.44652  -0.43709
 Alpha  occ. eigenvalues --   -0.41561  -0.41111  -0.40935  -0.39124  -0.38895
 Alpha  occ. eigenvalues --   -0.38520  -0.38343  -0.34632
 Alpha virt. eigenvalues --    0.17208   0.18531   0.19322   0.19604   0.20116
 Alpha virt. eigenvalues --    0.21538   0.21900   0.22957   0.23174   0.23923
 Alpha virt. eigenvalues --    0.25309   0.25867   0.26179   0.26808   0.27510

 Mulliken atomic charges:
              1
     1  C   -0.280409
     2  N   -0.790758
     3  C    0.815099
     4  O   -0.617399
     5  C    0.099436
     6  C   -0.494648
     7  C   -0.331466
     8  C   -0.313163
     9  C   -0.373958
    10  C   -0.178001
    11  C   -0.176489
    12  C   -0.353739
    13  C   -0.310731
    14  C   -0.329034
    15  C    0.091130
    16  C   -0.509545
    17  N   -0.787620
    18  C    0.767256
    19  C   -0.595715
    20  O   -0.613881
    21  C    0.820559
    22  O   -0.639067
    23  N   -0.806134
    24  C   -0.275585
    25  N   -0.852424
    26  C    0.760798
    27  C   -0.588802
    28  O   -0.592318
    29  H    0.179788
    30  H    0.203671
    31  H    0.165223
    32  H    0.385976
    33  H    0.189759
    34  H    0.147112
    35  H    0.256717
    36  H    0.174883
    37  H    0.161861
    38  H    0.164248
    39  H    0.184461
    40  H    0.210813
    41  H    0.175808
    42  H    0.176146
    43  H    0.169104
    44  H    0.177831
    45  H    0.160508
    46  H    0.151597
    47  H    0.199534
    48  H    0.173197
    49  H    0.184479
    50  H    0.183581
    51  H    0.147986
    52  H    0.226780
    53  H    0.389870
    54  H    0.211270
    55  H    0.209637
    56  H    0.176363
    57  H    0.395213
    58  H    0.164559
    59  H    0.199784
    60  H    0.185261
    61  H    0.380550
    62  H    0.219968
    63  H    0.174348
    64  H    0.198723
 Sum of Mulliken atomic charges =   0.00000

 Dipole moment (field-independent basis, Debye):
    X=             -1.7495    Y=             -3.0189    Z=              7.4410  Tot=              8.2185
 Quadrupole moment (field-independent basis, Debye-Ang):
   XX=           -209.8369   YY=           -155.0160   ZZ=           -172.1582
   XY=              3.9105   XZ=            -25.1901   YZ=             10.3207

 Normal termination of Gaussian 09 at Thu Dec  5 16:20:30 2019.
