 Gaussian 09, Revision A.02,
 Gaussian 09:  EM64L-G09RevA.02 11-Jun-2009

 ---------------------------------
 #SP HF/6-31G* Geom=(ModRedundant)
 ---------------------------------

 ------------
 paramfit run
 ------------
 Symbolic Z-matrix:
 Charge =  0 Multiplicity = 1

                         Standard orientation:
 ---------------------------------------------------------------------
 Center     Atomic      Atomic             Coordinates (Angstroms)
 Number     Number       Type             X           Y           Z
 ---------------------------------------------------------------------
      1          6    20001001       -3.906923    2.995568    0.764833
      2          7    20001014       -4.290224    1.622317    0.510847
      3          6    20001002       -4.461388    1.193577   -0.761550
      4          8    20001024       -4.096672    1.829565   -1.711417
      5          6    90000001       -5.029408   -0.226642   -0.933938
      6          6    90000002       -5.590979   -0.386198   -2.350631
      7          6    90000002       -3.929482   -1.281774   -0.636512
      8          6    90000002       -2.654146   -1.294632   -1.498480
      9          6    90000002       -1.531681   -0.304315   -1.129724
     10          6    20001004       -1.035963   -0.438241    0.291053
     11          6    20001004        0.038847   -1.084813    0.712343
     12          6    90000002        1.036215   -1.850436   -0.123619
     13          6    90000002        2.356608   -1.101417   -0.378761
     14          6    90000002        3.114189   -0.778469    0.916110
     15          6    90000002        4.541722   -0.184886    0.795888
     16          6    90000002        5.047163    0.101948    2.219160
     17          7    20001014        5.404134   -1.174806    0.165146
     18          6    20001002        6.684725   -0.875605   -0.200400
     19          6    20001001        7.316476   -1.851474   -1.166514
     20          8    20001024        7.271130    0.087071    0.210118
     21          6    20001002        4.481626    1.058625   -0.119969
     22          8    20001024        4.517857    0.933713   -1.314545
     23          7    20001014        4.285319    2.257323    0.470428
     24          6    20001001        4.269819    3.468284   -0.324265
     25          7    20001014       -6.074436   -0.485938    0.067118
     26          6    20001002       -5.814492   -0.832828    1.360088
     27          6    20001001       -6.989236   -0.707593    2.307935
     28          8    20001024       -4.739835   -1.220647    1.721815
     29          1    20001035       -4.684412    3.691935    0.472375
     30          1    20001035       -3.009093    3.231942    0.212790
     31          1    20001035       -3.707316    3.108663    1.823001
     32          1    20001029       -4.822369    1.160466    1.210705
     33          1    20001034       -4.838240   -0.177236   -3.095380
     34          1    20001034       -5.949886   -1.402310   -2.484571
     35          1    20001034       -6.409652    0.300220   -2.510421
     36          1    20001034       -4.410248   -2.249411   -0.762057
     37          1    20001034       -3.658824   -1.210554    0.412274
     38          1    20001034       -2.242265   -2.296759   -1.422888
     39          1    20001034       -2.910944   -1.152662   -2.543120
     40          1    20001034       -1.864780    0.712263   -1.293972
     41          1    20001034       -0.717833   -0.468825   -1.827164
     42          1    20001033       -1.636307    0.059763    1.035158
     43          1    20001033        0.240225   -1.068509    1.772032
     44          1    20001034        0.602911   -2.109890   -1.081949
     45          1    20001034        1.254443   -2.793658    0.375684
     46          1    20001034        2.963071   -1.715954   -1.038248
     47          1    20001034        2.151058   -0.190784   -0.925868
     48          1    20001034        3.203925   -1.681168    1.516624
     49          1    20001034        2.525474   -0.077332    1.495914
     50          1    20001034        5.151308   -0.839107    2.746557
     51          1    20001034        4.338122    0.708190    2.773338
     52          1    20001034        6.009704    0.590990    2.209545
     53          1    20001029        4.942003   -1.821699   -0.432077
     54          1    20001034        8.390523   -1.762397   -1.106932
     55          1    20001034        7.001003   -1.594734   -2.173334
     56          1    20001034        7.020237   -2.875185   -0.964917
     57          1    20001029        4.499651    2.349818    1.435216
     58          1    20001035        3.980561    4.294923    0.311281
     59          1    20001035        3.550738    3.370461   -1.124252
     60          1    20001035        5.241604    3.676293   -0.760293
     61          1    20001029       -6.952597   -0.049567   -0.105965
     62          1    20001034       -6.817375   -1.344897    3.163084
     63          1    20001034       -7.928018   -0.974621    1.835777
     64          1    20001034       -7.061957    0.319372    2.651236
 ---------------------------------------------------------------------

 SCF Done:  E(RHF) =  -1295.58933033     A.U. after   14 cycles

 The electronic state is 1-A.
 Alpha  occ. eigenvalues --  -20.54027 -20.52788 -20.51696 -20.51209 -15.60159
 Alpha  occ. eigenvalues --  -15.58581 -15.57557 -15.57112 -11.37039 -11.34319
 Alpha  occ. eigenvalues --  -11.33900 -11.33292 -11.28843 -11.28105 -11.25950
 Alpha  occ. eigenvalues --  -11.25155 -11.24724 -11.22789 -11.22198 -11.21950
 Alpha  occ. eigenvalues --  -11.21645 -11.21574 -11.21394 -11.20980 -11.20794
 Alpha  occ. eigenvalues --  -11.20687 -11.20351 -11.19822  -1.42045  -1.39701
 Alpha  occ. eigenvalues --   -1.38998  -1.37724  -1.26031  -1.23135  -1.23029
 Alpha  occ. eigenvalues --   -1.22269  -1.09733  -1.08649  -1.06687  -1.03590
 Alpha  occ. eigenvalues --   -1.01015  -0.99240  -0.98369  -0.96486  -0.94588
 Alpha  occ. eigenvalues --   -0.93850  -0.91180  -0.86823  -0.85290  -0.82236
 Alpha  occ. eigenvalues --   -0.80654  -0.79679  -0.79072  -0.77729  -0.76504
 Alpha  occ. eigenvalues --   -0.72829  -0.71203  -0.70790  -0.69883  -0.67520
 Alpha  occ. eigenvalues --   -0.66138  -0.65777  -0.64303  -0.63631  -0.63236
 Alpha  occ. eigenvalues --   -0.63019  -0.62366  -0.61446  -0.61214  -0.60969
 Alpha  occ. eigenvalues --   -0.60715  -0.60540  -0.59264  -0.58771  -0.58251
 Alpha  occ. eigenvalues --   -0.57504  -0.56771  -0.56059  -0.55788  -0.55750
 Alpha  occ. eigenvalues --   -0.55180  -0.55179  -0.54549  -0.54341  -0.53638
 Alpha  occ. eigenvalues --   -0.53291  -0.53082  -0.52625  -0.52437  -0.51733
 Alpha  occ. eigenvalues --   -0.50964  -0.49822  -0.49397  -0.48499  -0.47850
 Alpha  occ. eigenvalues --   -0.47110  -0.45772  -0.45185  -0.44854  -0.43882
 Alpha  occ. eigenvalues --   -0.41104  -0.40704  -0.39366  -0.39261  -0.38556
 Alpha  occ. eigenvalues --   -0.38461  -0.37911  -0.33251
 Alpha virt. eigenvalues --    0.16790   0.18505   0.18957   0.20047   0.20281
 Alpha virt. eigenvalues --    0.21990   0.22431   0.23226   0.23736   0.24100
 Alpha virt. eigenvalues --    0.25783   0.26154   0.26798   0.27504   0.27945

 Mulliken atomic charges:
              1
     1  C   -0.281787
     2  N   -0.786660
     3  C    0.791306
     4  O   -0.619544
     5  C    0.062293
     6  C   -0.466020
     7  C   -0.358578
     8  C   -0.308790
     9  C   -0.371279
    10  C   -0.170795
    11  C   -0.181292
    12  C   -0.352099
    13  C   -0.310247
    14  C   -0.328380
    15  C    0.090633
    16  C   -0.509509
    17  N   -0.787503
    18  C    0.767348
    19  C   -0.595572
    20  O   -0.614853
    21  C    0.820914
    22  O   -0.639669
    23  N   -0.805791
    24  C   -0.274933
    25  N   -0.804315
    26  C    0.716822
    27  C   -0.583595
    28  O   -0.600202
    29  H    0.168968
    30  H    0.208254
    31  H    0.171902
    32  H    0.398730
    33  H    0.214399
    34  H    0.171980
    35  H    0.157494
    36  H    0.163261
    37  H    0.298873
    38  H    0.161588
    39  H    0.155854
    40  H    0.198598
    41  H    0.168906
    42  H    0.184762
    43  H    0.168225
    44  H    0.177076
    45  H    0.159325
    46  H    0.148502
    47  H    0.197539
    48  H    0.173456
    49  H    0.185327
    50  H    0.183667
    51  H    0.148304
    52  H    0.225140
    53  H    0.390328
    54  H    0.210147
    55  H    0.209139
    56  H    0.176580
    57  H    0.395004
    58  H    0.163544
    59  H    0.199475
    60  H    0.184142
    61  H    0.379256
    62  H    0.223409
    63  H    0.190229
    64  H    0.190717
 Sum of Mulliken atomic charges =   0.00000

 Dipole moment (field-independent basis, Debye):
    X=             -7.0601    Y=             -0.4672    Z=              3.7600  Tot=              8.0125
 Quadrupole moment (field-independent basis, Debye-Ang):
   XX=           -152.0583   YY=           -162.7694   ZZ=           -174.4340
   XY=            -12.7681   XZ=             -7.3574   YZ=             16.2842

 Normal termination of Gaussian 09 at Thu Dec  5 16:53:16 2019.
