 Gaussian 09, Revision A.02,
 Gaussian 09:  EM64L-G09RevA.02 11-Jun-2009

 ---------------------------------
 #SP HF/6-31G* Geom=(ModRedundant)
 ---------------------------------

 ------------
 paramfit run
 ------------
 Symbolic Z-matrix:
 Charge =  0 Multiplicity = 1

                         Standard orientation:
 ---------------------------------------------------------------------
 Center     Atomic      Atomic             Coordinates (Angstroms)
 Number     Number       Type             X           Y           Z
 ---------------------------------------------------------------------
      1          6    20001001       -3.824992    3.073299    1.060069
      2          7    20001014       -4.238543    1.731656    0.704802
      3          6    20001002       -4.427199    1.405440   -0.595237
      4          8    20001024       -4.055731    2.104963   -1.496582
      5          6    90000001       -5.025851    0.014454   -0.871208
      6          6    90000002       -5.600186   -0.024437   -2.291232
      7          6    90000002       -3.946174   -1.082474   -0.664690
      8          6    90000002       -2.677236   -1.054950   -1.535710
      9          6    90000002       -1.531906   -0.118823   -1.101519
     10          6    20001004       -1.029500   -0.371466    0.300636
     11          6    20001004        0.034420   -1.070126    0.662166
     12          6    90000002        1.009941   -1.789354   -0.238291
     13          6    90000002        2.343907   -1.049868   -0.446283
     14          6    90000002        3.116786   -0.842719    0.863168
     15          6    90000002        4.555537   -0.270709    0.776890
     16          6    90000002        5.076453   -0.104309    2.213695
     17          7    20001014        5.392847   -1.226548    0.064980
     18          6    20001002        6.676897   -0.926175   -0.287226
     19          6    20001001        7.281627   -1.837581   -1.330512
     20          8    20001024        7.286001   -0.009944    0.190953
     21          6    20001002        4.515189    1.040417   -0.040451
     22          8    20001024        4.540737    1.006891   -1.241347
     23          7    20001014        4.347905    2.193973    0.641682
     24          6    20001001        4.352283    3.462445   -0.057721
     25          7    20001014       -6.069270   -0.299712    0.115710
     26          6    20001002       -5.931354   -1.246377    1.087552
     27          6    20001001       -6.950817   -1.173483    2.205362
     28          8    20001024       -5.075060   -2.084213    1.057030
     29          1    20001035       -4.589755    3.805680    0.828324
     30          1    20001035       -2.926180    3.333121    0.520298
     31          1    20001035       -3.615927    3.100741    2.122091
     32          1    20001029       -4.775459    1.228309    1.371621
     33          1    20001034       -4.848303    0.225797   -3.024027
     34          1    20001034       -5.981093   -1.019781   -2.499646
     35          1    20001034       -6.405433    0.688673   -2.391122
     36          1    20001034       -4.447844   -2.027672   -0.860004
     37          1    20001034       -3.667012   -1.097495    0.384177
     38          1    20001034       -2.285834   -2.068064   -1.540568
     39          1    20001034       -2.938072   -0.828011   -2.564222
     40          1    20001034       -1.844845    0.913907   -1.184602
     41          1    20001034       -0.726396   -0.245753   -1.816274
     42          1    20001033       -1.614292    0.079995    1.085693
     43          1    20001033        0.243250   -1.139323    1.718274
     44          1    20001034        0.564858   -1.965622   -1.210040
     45          1    20001034        1.211829   -2.772358    0.185428
     46          1    20001034        2.932958   -1.624115   -1.155955
     47          1    20001034        2.153692   -0.095935   -0.920267
     48          1    20001034        3.191741   -1.790495    1.391974
     49          1    20001034        2.546746   -0.176386    1.499882
     50          1    20001034        5.164519   -1.084999    2.666542
     51          1    20001034        4.383963    0.471834    2.818591
     52          1    20001034        6.048892    0.364420    2.233560
     53          1    20001029        4.913306   -1.816174   -0.576186
     54          1    20001034        8.357675   -1.775127   -1.273234
     55          1    20001034        6.964779   -1.497950   -2.312033
     56          1    20001034        6.965482   -2.867535   -1.205492
     57          1    20001029        4.570632    2.207751    1.608901
     58          1    20001035        4.084619    4.243535    0.641690
     59          1    20001035        3.625930    3.440930   -0.856830
     60          1    20001035        5.325224    3.683584   -0.484613
     61          1    20001029       -6.721207    0.430426    0.298530
     62          1    20001034       -7.013671   -2.139802    2.684163
     63          1    20001034       -7.931011   -0.877883    1.848446
     64          1    20001034       -6.622854   -0.444618    2.939527
 ---------------------------------------------------------------------

 SCF Done:  E(RHF) =  -1295.57676895     A.U. after   14 cycles

 The electronic state is 1-A.
 Alpha  occ. eigenvalues --  -20.53203 -20.52794 -20.51776 -20.51315 -15.60060
 Alpha  occ. eigenvalues --  -15.59393 -15.57668 -15.57205 -11.36388 -11.34785
 Alpha  occ. eigenvalues --  -11.33980 -11.33400 -11.28873 -11.28219 -11.26500
 Alpha  occ. eigenvalues --  -11.24830 -11.24746 -11.22928 -11.22260 -11.21792
 Alpha  occ. eigenvalues --  -11.21732 -11.21507 -11.21325 -11.21291 -11.21115
 Alpha  occ. eigenvalues --  -11.20626 -11.20500 -11.20341  -1.41238  -1.40090
 Alpha  occ. eigenvalues --   -1.39091  -1.37819  -1.26083  -1.23427  -1.23231
 Alpha  occ. eigenvalues --   -1.22379  -1.09890  -1.08682  -1.06796  -1.03623
 Alpha  occ. eigenvalues --   -1.00747  -0.99263  -0.98452  -0.96854  -0.94692
 Alpha  occ. eigenvalues --   -0.93932  -0.91267  -0.86943  -0.85476  -0.82555
 Alpha  occ. eigenvalues --   -0.80601  -0.79992  -0.79177  -0.77387  -0.76608
 Alpha  occ. eigenvalues --   -0.73496  -0.71305  -0.70359  -0.68812  -0.67618
 Alpha  occ. eigenvalues --   -0.66412  -0.66025  -0.64450  -0.63776  -0.63736
 Alpha  occ. eigenvalues --   -0.63138  -0.62421  -0.61381  -0.61203  -0.61042
 Alpha  occ. eigenvalues --   -0.60812  -0.60454  -0.59115  -0.58674  -0.58344
 Alpha  occ. eigenvalues --   -0.57845  -0.57097  -0.56115  -0.55996  -0.55880
 Alpha  occ. eigenvalues --   -0.55841  -0.55059  -0.54587  -0.54377  -0.53522
 Alpha  occ. eigenvalues --   -0.53089  -0.52727  -0.52651  -0.52162  -0.51681
 Alpha  occ. eigenvalues --   -0.50856  -0.49960  -0.49486  -0.48675  -0.47823
 Alpha  occ. eigenvalues --   -0.47162  -0.46178  -0.45881  -0.44124  -0.43712
 Alpha  occ. eigenvalues --   -0.41206  -0.40788  -0.40034  -0.38758  -0.38568
 Alpha  occ. eigenvalues --   -0.38446  -0.38013  -0.33472
 Alpha virt. eigenvalues --    0.17260   0.17806   0.18428   0.19579   0.19953
 Alpha virt. eigenvalues --    0.21893   0.22320   0.23239   0.23616   0.24501
 Alpha virt. eigenvalues --    0.25643   0.26055   0.26240   0.27119   0.27800

 Mulliken atomic charges:
              1
     1  C   -0.283066
     2  N   -0.779831
     3  C    0.776992
     4  O   -0.615440
     5  C    0.080694
     6  C   -0.446752
     7  C   -0.320919
     8  C   -0.304141
     9  C   -0.372299
    10  C   -0.167239
    11  C   -0.178226
    12  C   -0.352581
    13  C   -0.310672
    14  C   -0.328396
    15  C    0.090788
    16  C   -0.509459
    17  N   -0.787499
    18  C    0.767289
    19  C   -0.595616
    20  O   -0.614796
    21  C    0.820839
    22  O   -0.639370
    23  N   -0.806020
    24  C   -0.274988
    25  N   -0.825432
    26  C    0.731469
    27  C   -0.584311
    28  O   -0.585344
    29  H    0.172343
    30  H    0.211119
    31  H    0.171034
    32  H    0.379587
    33  H    0.204012
    34  H    0.169218
    35  H    0.157493
    36  H    0.202843
    37  H    0.215838
    38  H    0.164775
    39  H    0.159057
    40  H    0.197245
    41  H    0.169699
    42  H    0.172874
    43  H    0.166960
    44  H    0.178585
    45  H    0.160583
    46  H    0.149447
    47  H    0.197646
    48  H    0.173713
    49  H    0.184347
    50  H    0.183838
    51  H    0.147785
    52  H    0.225461
    53  H    0.390427
    54  H    0.210339
    55  H    0.209273
    56  H    0.176758
    57  H    0.394953
    58  H    0.163390
    59  H    0.199438
    60  H    0.184527
    61  H    0.374717
    62  H    0.223115
    63  H    0.185930
    64  H    0.185957
 Sum of Mulliken atomic charges =   0.00000

 Dipole moment (field-independent basis, Debye):
    X=             -6.0967    Y=              0.3506    Z=              4.7141  Tot=              7.7146
 Quadrupole moment (field-independent basis, Debye-Ang):
   XX=           -162.5414   YY=           -168.3192   ZZ=           -169.1462
   XY=            -17.9045   XZ=            -12.4324   YZ=             17.6268

 Normal termination of Gaussian 09 at Thu Dec  5 16:37:11 2019.
