 Gaussian 09, Revision A.02,
 Gaussian 09:  EM64L-G09RevA.02 11-Jun-2009

 ---------------------------------
 #SP HF/6-31G* Geom=(ModRedundant)
 ---------------------------------

 ------------
 paramfit run
 ------------
 Symbolic Z-matrix:
 Charge =  0 Multiplicity = 1

                         Standard orientation:
 ---------------------------------------------------------------------
 Center     Atomic      Atomic             Coordinates (Angstroms)
 Number     Number       Type             X           Y           Z
 ---------------------------------------------------------------------
      1          6    20001001       -3.756659    3.167799    1.068296
      2          7    20001014       -4.188649    1.824992    0.740426
      3          6    20001002       -4.391605    1.477872   -0.552023
      4          8    20001024       -4.019334    2.156777   -1.468674
      5          6    90000001       -5.008611    0.089328   -0.798268
      6          6    90000002       -5.594834    0.031868   -2.212794
      7          6    90000002       -3.940129   -1.016376   -0.580626
      8          6    90000002       -2.678049   -1.019344   -1.461978
      9          6    90000002       -1.518431   -0.089168   -1.053695
     10          6    20001004       -1.007664   -0.322648    0.348761
     11          6    20001004        0.050950   -1.027224    0.714366
     12          6    90000002        1.010718   -1.773842   -0.180708
     13          6    90000002        2.351468   -1.053944   -0.412445
     14          6    90000002        3.137278   -0.832575    0.886944
     15          6    90000002        4.581840   -0.279176    0.779077
     16          6    90000002        5.116269   -0.093308    2.208513
     17          7    20001014        5.402184   -1.257360    0.077847
     18          6    20001002        6.686749   -0.978461   -0.289804
     19          6    20001001        7.272371   -1.915396   -1.321309
     20          8    20001024        7.310320   -0.061078    0.167043
     21          6    20001002        4.550131    1.017539   -0.061309
     22          8    20001024        4.565565    0.962290   -1.261574
     23          7    20001014        4.401803    2.184974    0.601318
     24          6    20001001        4.415273    3.440623   -0.120741
     25          7    20001014       -6.047590   -0.194868    0.202324
     26          6    20001002       -6.104573   -1.348356    0.927507
     27          6    20001001       -7.016576   -1.303628    2.135964
     28          8    20001024       -5.489176   -2.331838    0.627193
     29          1    20001035       -4.514702    3.904882    0.829488
     30          1    20001035       -2.859284    3.407346    0.516881
     31          1    20001035       -3.538699    3.211725    2.127974
     32          1    20001029       -4.725969    1.339981    1.420381
     33          1    20001034       -4.846048    0.260114   -2.955865
     34          1    20001034       -5.988967   -0.962483   -2.400308
     35          1    20001034       -6.392515    0.752514   -2.319107
     36          1    20001034       -4.454324   -1.958937   -0.754990
     37          1    20001034       -3.652679   -1.015964    0.466108
     38          1    20001034       -2.298509   -2.036921   -1.451747
     39          1    20001034       -2.944544   -0.807740   -2.492307
     40          1    20001034       -1.819998    0.945527   -1.152820
     41          1    20001034       -0.720263   -0.238309   -1.772387
     42          1    20001033       -1.580790    0.149605    1.130180
     43          1    20001033        0.267502   -1.080017    1.769866
     44          1    20001034        0.555763   -1.962171   -1.145599
     45          1    20001034        1.204581   -2.751437    0.258972
     46          1    20001034        2.928036   -1.647660   -1.116324
     47          1    20001034        2.168531   -0.106448   -0.901950
     48          1    20001034        3.205482   -1.771581    1.432060
     49          1    20001034        2.580200   -0.148320    1.516078
     50          1    20001034        5.196586   -1.066730    2.678171
     51          1    20001034        4.435447    0.501651    2.808418
     52          1    20001034        6.094223    0.364218    2.212298
     53          1    20001029        4.910644   -1.852647   -0.548836
     54          1    20001034        8.349502   -1.864605   -1.273648
     55          1    20001034        6.951561   -1.589629   -2.306236
     56          1    20001034        6.945290   -2.939161   -1.175344
     57          1    20001029        4.632497    2.213387    1.566348
     58          1    20001035        4.162383    4.237167    0.566635
     59          1    20001035        3.682275    3.413406   -0.913583
     60          1    20001035        5.387233    3.642637   -0.559189
     61          1    20001029       -6.485054    0.603515    0.605756
     62          1    20001034       -7.296849   -2.313085    2.399431
     63          1    20001034       -7.907230   -0.711956    1.956488
     64          1    20001034       -6.480049   -0.864733    2.971016
 ---------------------------------------------------------------------

 SCF Done:  E(RHF) =  -1295.58101480     A.U. after   14 cycles

 The electronic state is 1-A.
 Alpha  occ. eigenvalues --  -20.53426 -20.52943 -20.51834 -20.51384 -15.59989
 Alpha  occ. eigenvalues --  -15.59747 -15.57737 -15.57271 -11.36367 -11.35146
 Alpha  occ. eigenvalues --  -11.34037 -11.33469 -11.28868 -11.28298 -11.26719
 Alpha  occ. eigenvalues --  -11.24890 -11.24665 -11.23027 -11.22307 -11.21908
 Alpha  occ. eigenvalues --  -11.21850 -11.21583 -11.21487 -11.21310 -11.21059
 Alpha  occ. eigenvalues --  -11.20751 -11.20558 -11.20235  -1.41135  -1.40296
 Alpha  occ. eigenvalues --   -1.39154  -1.37882  -1.26225  -1.23613  -1.23299
 Alpha  occ. eigenvalues --   -1.22447  -1.09994  -1.08669  -1.06865  -1.03703
 Alpha  occ. eigenvalues --   -1.00755  -0.99280  -0.98512  -0.97054  -0.94755
 Alpha  occ. eigenvalues --   -0.93979  -0.91316  -0.87076  -0.85591  -0.82672
 Alpha  occ. eigenvalues --   -0.80809  -0.80172  -0.79244  -0.77016  -0.76675
 Alpha  occ. eigenvalues --   -0.73883  -0.71384  -0.70457  -0.68502  -0.67669
 Alpha  occ. eigenvalues --   -0.66637  -0.66091  -0.64618  -0.63942  -0.63785
 Alpha  occ. eigenvalues --   -0.63312  -0.62666  -0.61438  -0.61207  -0.61102
 Alpha  occ. eigenvalues --   -0.60878  -0.60584  -0.59101  -0.58547  -0.58410
 Alpha  occ. eigenvalues --   -0.57954  -0.57326  -0.56358  -0.56171  -0.56070
 Alpha  occ. eigenvalues --   -0.55943  -0.55105  -0.54633  -0.54424  -0.53592
 Alpha  occ. eigenvalues --   -0.53075  -0.52792  -0.52372  -0.52080  -0.51774
 Alpha  occ. eigenvalues --   -0.50787  -0.49948  -0.49539  -0.48791  -0.48033
 Alpha  occ. eigenvalues --   -0.47488  -0.46350  -0.45918  -0.43778  -0.43372
 Alpha  occ. eigenvalues --   -0.41275  -0.40847  -0.40372  -0.39479  -0.38631
 Alpha  occ. eigenvalues --   -0.38440  -0.38078  -0.33622
 Alpha virt. eigenvalues --    0.17593   0.17935   0.18640   0.18909   0.19886
 Alpha virt. eigenvalues --    0.21827   0.22246   0.23308   0.23530   0.24715
 Alpha virt. eigenvalues --    0.25747   0.25818   0.26502   0.27056   0.27347

 Mulliken atomic charges:
              1
     1  C   -0.284227
     2  N   -0.778285
     3  C    0.771469
     4  O   -0.614141
     5  C    0.101696
     6  C   -0.444033
     7  C   -0.347543
     8  C   -0.304855
     9  C   -0.372545
    10  C   -0.168521
    11  C   -0.177794
    12  C   -0.352657
    13  C   -0.310802
    14  C   -0.328450
    15  C    0.090895
    16  C   -0.509440
    17  N   -0.787521
    18  C    0.767255
    19  C   -0.595638
    20  O   -0.614713
    21  C    0.820794
    22  O   -0.639198
    23  N   -0.806118
    24  C   -0.275052
    25  N   -0.838793
    26  C    0.755969
    27  C   -0.589209
    28  O   -0.595730
    29  H    0.174020
    30  H    0.212378
    31  H    0.171444
    32  H    0.373323
    33  H    0.199315
    34  H    0.171445
    35  H    0.161501
    36  H    0.263819
    37  H    0.167932
    38  H    0.164651
    39  H    0.163792
    40  H    0.196734
    41  H    0.169332
    42  H    0.170608
    43  H    0.166271
    44  H    0.179429
    45  H    0.160653
    46  H    0.149998
    47  H    0.197953
    48  H    0.173637
    49  H    0.183983
    50  H    0.183837
    51  H    0.147577
    52  H    0.225695
    53  H    0.390439
    54  H    0.210482
    55  H    0.209380
    56  H    0.176798
    57  H    0.394939
    58  H    0.163393
    59  H    0.199463
    60  H    0.184736
    61  H    0.371786
    62  H    0.223028
    63  H    0.184634
    64  H    0.188785
 Sum of Mulliken atomic charges =   0.00000

 Dipole moment (field-independent basis, Debye):
    X=             -5.3315    Y=              0.7630    Z=              5.4703  Tot=              7.6767
 Quadrupole moment (field-independent basis, Debye-Ang):
   XX=           -170.8971   YY=           -168.9908   ZZ=           -167.7889
   XY=            -20.4058   XZ=            -15.5211   YZ=             16.5420

 Normal termination of Gaussian 09 at Thu Dec  5 16:26:20 2019.
