 Gaussian 09, Revision A.02,
 Gaussian 09:  EM64L-G09RevA.02 11-Jun-2009

 ---------------------------------
 #SP HF/6-31G* Geom=(ModRedundant)
 ---------------------------------

 ------------
 paramfit run
 ------------
 Symbolic Z-matrix:
 Charge =  0 Multiplicity = 1

                         Standard orientation:
 ---------------------------------------------------------------------
 Center     Atomic      Atomic             Coordinates (Angstroms)
 Number     Number       Type             X           Y           Z
 ---------------------------------------------------------------------
      1          6    20001001       -3.608132    3.325622    0.905368
      2          7    20001014       -4.062087    1.961771    0.729066
      3          6    20001002       -4.299607    1.484925   -0.515245
      4          8    20001024       -3.942203    2.059998   -1.505851
      5          6    90000001       -4.937044    0.086485   -0.601421
      6          6    90000002       -5.557549   -0.109974   -1.988584
      7          6    90000002       -3.875461   -1.004476   -0.294097
      8          6    90000002       -2.634950   -1.115475   -1.198778
      9          6    90000002       -1.456075   -0.163131   -0.916060
     10          6    20001004       -0.914380   -0.256280    0.491124
     11          6    20001004        0.145142   -0.932816    0.904004
     12          6    90000002        1.075218   -1.780857    0.070015
     13          6    90000002        2.417605   -1.106496   -0.265846
     14          6    90000002        3.236611   -0.761597    0.985229
     15          6    90000002        4.683972   -0.241306    0.787519
     16          6    90000002        5.254420    0.085081    2.177307
     17          7    20001014        5.476855   -1.297678    0.173560
     18          6    20001002        6.755137   -1.075280   -0.250223
     19          6    20001001        7.305908   -2.121882   -1.191542
     20          8    20001024        7.399176   -0.123615    0.094289
     21          6    20001002        4.645921    0.961378   -0.182443
     22          8    20001024        4.632023    0.781525   -1.370461
     23          7    20001014        4.525910    2.193178    0.358156
     24          6    20001001        4.535421    3.366726   -0.490901
     25          7    20001014       -5.954726   -0.078625    0.446669
     26          6    20001002       -6.687622   -1.215887    0.617463
     27          6    20001001       -7.411222   -1.321280    1.943892
     28          8    20001024       -6.766100   -2.066690   -0.222845
     29          1    20001035       -4.363805    4.043736    0.608350
     30          1    20001035       -2.721725    3.494845    0.311761
     31          1    20001035       -3.364405    3.476561    1.949479
     32          1    20001029       -4.588091    1.557088    1.467874
     33          1    20001034       -4.824388    0.030037   -2.768202
     34          1    20001034       -5.966597   -1.113196   -2.062491
     35          1    20001034       -6.349848    0.606077   -2.151250
     36          1    20001034       -4.403665   -1.953258   -0.357598
     37          1    20001034       -3.563041   -0.899063    0.740099
     38          1    20001034       -2.266103   -2.131349   -1.091218
     39          1    20001034       -2.923778   -1.008606   -2.239226
     40          1    20001034       -1.748923    0.859514   -1.115562
     41          1    20001034       -0.676974   -0.396543   -1.633246
     42          1    20001033       -1.463583    0.302047    1.231908
     43          1    20001033        0.386334   -0.878480    1.954068
     44          1    20001034        0.595315   -2.062462   -0.859424
     45          1    20001034        1.269162   -2.709926    0.604628
     46          1    20001034        2.970815   -1.777608   -0.916955
     47          1    20001034        2.233072   -0.212681   -0.847113
     48          1    20001034        3.307872   -1.639694    1.623510
     49          1    20001034        2.702056   -0.008465    1.552144
     50          1    20001034        5.335617   -0.835240    2.743871
     51          1    20001034        4.594515    0.747987    2.727273
     52          1    20001034        6.236988    0.527718    2.111197
     53          1    20001029        4.964154   -1.948388   -0.376374
     54          1    20001034        8.384350   -2.080479   -1.173905
     55          1    20001034        6.965082   -1.896050   -2.197506
     56          1    20001034        6.971561   -3.120583   -0.932328
     57          1    20001029        4.779935    2.318689    1.309486
     58          1    20001035        4.307537    4.233611    0.115319
     59          1    20001035        3.783400    3.266852   -1.259741
     60          1    20001035        5.498694    3.509387   -0.969969
     61          1    20001029       -5.842512    0.500177    1.249130
     62          1    20001034       -8.234885   -2.012233    1.838361
     63          1    20001034       -7.780809   -0.361594    2.287344
     64          1    20001034       -6.728040   -1.709573    2.692418
 ---------------------------------------------------------------------

 SCF Done:  E(RHF) =  -1295.60336994     A.U. after   14 cycles

 The electronic state is 1-A.
 Alpha  occ. eigenvalues --  -20.53667 -20.53229 -20.52030 -20.51609 -15.60316
 Alpha  occ. eigenvalues --  -15.59651 -15.57948 -15.57498 -11.35996 -11.35550
 Alpha  occ. eigenvalues --  -11.34234 -11.33696 -11.28966 -11.28557 -11.26999
 Alpha  occ. eigenvalues --  -11.25068 -11.24340 -11.23358 -11.22479 -11.22394
 Alpha  occ. eigenvalues --  -11.22258 -11.22229 -11.22125 -11.21944 -11.21817
 Alpha  occ. eigenvalues --  -11.21711 -11.21306 -11.19879  -1.40769  -1.40179
 Alpha  occ. eigenvalues --   -1.39365  -1.38092  -1.26433  -1.23748  -1.23529
 Alpha  occ. eigenvalues --   -1.22658  -1.10504  -1.08901  -1.07078  -1.04091
 Alpha  occ. eigenvalues --   -1.01023  -0.99249  -0.98709  -0.97297  -0.94982
 Alpha  occ. eigenvalues --   -0.94305  -0.91695  -0.87392  -0.85865  -0.82778
 Alpha  occ. eigenvalues --   -0.81630  -0.80404  -0.79461  -0.76893  -0.76339
 Alpha  occ. eigenvalues --   -0.74370  -0.71732  -0.71016  -0.68000  -0.67687
 Alpha  occ. eigenvalues --   -0.66777  -0.65985  -0.65148  -0.64296  -0.63915
 Alpha  occ. eigenvalues --   -0.63280  -0.63086  -0.61756  -0.61426  -0.61364
 Alpha  occ. eigenvalues --   -0.61078  -0.60270  -0.59359  -0.58788  -0.58665
 Alpha  occ. eigenvalues --   -0.57775  -0.57609  -0.56857  -0.56580  -0.56327
 Alpha  occ. eigenvalues --   -0.56095  -0.55214  -0.54815  -0.54604  -0.53805
 Alpha  occ. eigenvalues --   -0.53637  -0.53055  -0.52425  -0.51971  -0.51825
 Alpha  occ. eigenvalues --   -0.51125  -0.49971  -0.49699  -0.48738  -0.47858
 Alpha  occ. eigenvalues --   -0.47666  -0.46943  -0.46301  -0.44205  -0.43565
 Alpha  occ. eigenvalues --   -0.41543  -0.41501  -0.41048  -0.40585  -0.38917
 Alpha  occ. eigenvalues --   -0.38848  -0.38305  -0.34352
 Alpha virt. eigenvalues --    0.17229   0.17853   0.18166   0.19456   0.19665
 Alpha virt. eigenvalues --    0.21603   0.21977   0.23018   0.23271   0.24320
 Alpha virt. eigenvalues --    0.25076   0.25927   0.26595   0.26734   0.27391

 Mulliken atomic charges:
              1
     1  C   -0.284777
     2  N   -0.792549
     3  C    0.801746
     4  O   -0.612199
     5  C    0.081989
     6  C   -0.480947
     7  C   -0.323805
     8  C   -0.316465
     9  C   -0.373122
    10  C   -0.173039
    11  C   -0.176578
    12  C   -0.353690
    13  C   -0.310910
    14  C   -0.328760
    15  C    0.091100
    16  C   -0.509471
    17  N   -0.787564
    18  C    0.767199
    19  C   -0.595705
    20  O   -0.614272
    21  C    0.820601
    22  O   -0.638925
    23  N   -0.806298
    24  C   -0.275310
    25  N   -0.827171
    26  C    0.762010
    27  C   -0.592008
    28  O   -0.597279
    29  H    0.180131
    30  H    0.213185
    31  H    0.171242
    32  H    0.371192
    33  H    0.190013
    34  H    0.225232
    35  H    0.168282
    36  H    0.218562
    37  H    0.153687
    38  H    0.164733
    39  H    0.177333
    40  H    0.201271
    41  H    0.174245
    42  H    0.170808
    43  H    0.167619
    44  H    0.179601
    45  H    0.161043
    46  H    0.151529
    47  H    0.198594
    48  H    0.173591
    49  H    0.183693
    50  H    0.183861
    51  H    0.147476
    52  H    0.226451
    53  H    0.390234
    54  H    0.211029
    55  H    0.209617
    56  H    0.176734
    57  H    0.395080
    58  H    0.163793
    59  H    0.199435
    60  H    0.185332
    61  H    0.366031
    62  H    0.221420
    63  H    0.178690
    64  H    0.195433
 Sum of Mulliken atomic charges =   0.00000

 Dipole moment (field-independent basis, Debye):
    X=             -2.7465    Y=              0.7856    Z=              7.0961  Tot=              7.6495
 Quadrupole moment (field-independent basis, Debye-Ang):
   XX=           -198.4421   YY=           -163.7209   ZZ=           -168.9295
   XY=            -21.2846   XZ=            -22.8947   YZ=             12.0431

 Normal termination of Gaussian 09 at Thu Dec  5 15:59:42 2019.
