 Gaussian 09, Revision A.02,
 Gaussian 09:  EM64L-G09RevA.02 11-Jun-2009

 ---------------------------------
 #SP HF/6-31G* Geom=(ModRedundant)
 ---------------------------------

 ------------
 paramfit run
 ------------
 Symbolic Z-matrix:
 Charge =  0 Multiplicity = 1

                         Standard orientation:
 ---------------------------------------------------------------------
 Center     Atomic      Atomic             Coordinates (Angstroms)
 Number     Number       Type             X           Y           Z
 ---------------------------------------------------------------------
      1          6    20001001       -3.776431    2.885476    0.573849
      2          7    20001014       -4.123301    1.479445    0.575216
      3          6    20001002       -4.326178    0.833105   -0.596618
      4          8    20001024       -4.017165    1.304843   -1.655731
      5          6    90000001       -4.853050   -0.609917   -0.499251
      6          6    90000002       -5.459939   -1.026342   -1.843170
      7          6    90000002       -3.708985   -1.568695   -0.070926
      8          6    90000002       -2.465924   -1.696826   -0.969824
      9          6    90000002       -1.364031   -0.628684   -0.823057
     10          6    20001004       -0.813119   -0.502249    0.577938
     11          6    20001004        0.296905   -1.038015    1.059145
     12          6    90000002        1.288025   -1.910124    0.326438
     13          6    90000002        2.572981   -1.182125   -0.107692
     14          6    90000002        3.365866   -0.620726    1.080197
     15          6    90000002        4.767825   -0.019673    0.801108
     16          6    90000002        5.314703    0.521742    2.131989
     17          7    20001014        5.638949   -1.080726    0.314446
     18          6    20001002        6.894950   -0.815738   -0.149559
     19          6    20001001        7.523096   -1.926902   -0.959221
     20          8    20001024        7.463843    0.218374    0.065188
     21          6    20001002        4.633787    1.045009   -0.311192
     22          8    20001024        4.630880    0.716693   -1.467101
     23          7    20001014        4.419648    2.322095    0.072447
     24          6    20001001        4.335604    3.376816   -0.916847
     25          7    20001014       -5.852098   -0.719715    0.573725
     26          6    20001002       -7.014918   -0.007824    0.600833
     27          6    20001001       -8.055633   -0.513425    1.578278
     28          8    20001024       -7.199409    0.955416   -0.087841
     29          1    20001035       -4.586467    3.500298    0.198637
     30          1    20001035       -2.907412    3.046386   -0.047148
     31          1    20001035       -3.542513    3.184776    1.587780
     32          1    20001029       -4.614312    1.131616    1.365284
     33          1    20001034       -4.741905   -0.929494   -2.643157
     34          1    20001034       -5.789847   -2.059356   -1.785904
     35          1    20001034       -6.305984   -0.399486   -2.084387
     36          1    20001034       -4.161897   -2.555719   -0.008680
     37          1    20001034       -3.403064   -1.310389    0.938020
     38          1    20001034       -2.018848   -2.659722   -0.740536
     39          1    20001034       -2.764864   -1.744140   -2.011827
     40          1    20001034       -1.736102    0.335193   -1.145342
     41          1    20001034       -0.570970   -0.889801   -1.514942
     42          1    20001033       -1.402210    0.100881    1.249740
     43          1    20001033        0.535830   -0.833710    2.091102
     44          1    20001034        0.829112   -2.342408   -0.554468
     45          1    20001034        1.555067   -2.746923    0.970682
     46          1    20001034        3.175077   -1.885225   -0.676467
     47          1    20001034        2.317945   -0.385336   -0.793924
     48          1    20001034        3.506898   -1.403510    1.822420
     49          1    20001034        2.775768    0.154350    1.554952
     50          1    20001034        5.468743   -0.311058    2.808225
     51          1    20001034        4.606615    1.195806    2.602766
     52          1    20001034        6.259664    1.026792    1.998902
     53          1    20001029        5.177043   -1.832895   -0.143373
     54          1    20001034        8.595085   -1.800803   -0.960197
     55          1    20001034        7.163145   -1.856215   -1.981260
     56          1    20001034        7.268166   -2.907820   -0.572965
     57          1    20001029        4.665574    2.585371    0.997388
     58          1    20001035        4.042493    4.292925   -0.421114
     59          1    20001035        3.591668    3.123544   -1.657818
     60          1    20001035        5.283618    3.531765   -1.421838
     61          1    20001029       -5.846455   -1.577411    1.079564
     62          1    20001034       -8.736270    0.292388    1.811454
     63          1    20001034       -7.611145   -0.892398    2.491711
     64          1    20001034       -8.618024   -1.317869    1.115258
 ---------------------------------------------------------------------

 SCF Done:  E(RHF) =  -1295.62207910     A.U. after   14 cycles

 The electronic state is 1-A.
 Alpha  occ. eigenvalues --  -20.53655 -20.52037 -20.51851 -20.51572 -15.59612
 Alpha  occ. eigenvalues --  -15.57879 -15.57538 -15.57511 -11.35974 -11.34245
 Alpha  occ. eigenvalues --  -11.33865 -11.33659 -11.29029 -11.28554 -11.24955
 Alpha  occ. eigenvalues --  -11.24907 -11.24364 -11.24002 -11.23385 -11.22692
 Alpha  occ. eigenvalues --  -11.22546 -11.22507 -11.22340 -11.22221 -11.22018
 Alpha  occ. eigenvalues --  -11.21795 -11.21588 -11.20858  -1.40592  -1.39352
 Alpha  occ. eigenvalues --   -1.38709  -1.38074  -1.25436  -1.23537  -1.22591
 Alpha  occ. eigenvalues --   -1.22086  -1.10758  -1.09257  -1.07184  -1.04220
 Alpha  occ. eigenvalues --   -1.01230  -0.99321  -0.98730  -0.95526  -0.95122
 Alpha  occ. eigenvalues --   -0.94566  -0.92185  -0.87260  -0.85696  -0.82834
 Alpha  occ. eigenvalues --   -0.81341  -0.79480  -0.78766  -0.77186  -0.76857
 Alpha  occ. eigenvalues --   -0.71893  -0.71288  -0.71095  -0.68948  -0.67977
 Alpha  occ. eigenvalues --   -0.66705  -0.65852  -0.64525  -0.63950  -0.63702
 Alpha  occ. eigenvalues --   -0.62591  -0.62332  -0.61766  -0.61408  -0.61149
 Alpha  occ. eigenvalues --   -0.60918  -0.59897  -0.59334  -0.58710  -0.58428
 Alpha  occ. eigenvalues --   -0.58256  -0.57815  -0.56573  -0.56394  -0.56210
 Alpha  occ. eigenvalues --   -0.55488  -0.54846  -0.54737  -0.54560  -0.53951
 Alpha  occ. eigenvalues --   -0.53082  -0.52822  -0.52467  -0.52147  -0.51540
 Alpha  occ. eigenvalues --   -0.51036  -0.50302  -0.49762  -0.49260  -0.48544
 Alpha  occ. eigenvalues --   -0.48343  -0.46924  -0.46387  -0.44529  -0.42872
 Alpha  occ. eigenvalues --   -0.41942  -0.41488  -0.41052  -0.39295  -0.38821
 Alpha  occ. eigenvalues --   -0.38322  -0.38263  -0.34507
 Alpha virt. eigenvalues --    0.17332   0.18795   0.19668   0.19989   0.20235
 Alpha virt. eigenvalues --    0.21608   0.21983   0.23166   0.23256   0.23940
 Alpha virt. eigenvalues --    0.25299   0.25649   0.26548   0.27119   0.27652

 Mulliken atomic charges:
              1
     1  C   -0.279648
     2  N   -0.783333
     3  C    0.821923
     4  O   -0.628166
     5  C    0.102207
     6  C   -0.472645
     7  C   -0.334182
     8  C   -0.311927
     9  C   -0.373785
    10  C   -0.179012
    11  C   -0.177035
    12  C   -0.353473
    13  C   -0.310562
    14  C   -0.329075
    15  C    0.091045
    16  C   -0.509590
    17  N   -0.787620
    18  C    0.767307
    19  C   -0.595692
    20  O   -0.613867
    21  C    0.820609
    22  O   -0.639319
    23  N   -0.805953
    24  C   -0.275607
    25  N   -0.842977
    26  C    0.744488
    27  C   -0.588672
    28  O   -0.591782
    29  H    0.187046
    30  H    0.198268
    31  H    0.162146
    32  H    0.391314
    33  H    0.199005
    34  H    0.144103
    35  H    0.212327
    36  H    0.161313
    37  H    0.182162
    38  H    0.164444
    39  H    0.179855
    40  H    0.213493
    41  H    0.175186
    42  H    0.180424
    43  H    0.169612
    44  H    0.176833
    45  H    0.160138
    46  H    0.151043
    47  H    0.199600
    48  H    0.173063
    49  H    0.185084
    50  H    0.183452
    51  H    0.148359
    52  H    0.226625
    53  H    0.389770
    54  H    0.211158
    55  H    0.209514
    56  H    0.176238
    57  H    0.395262
    58  H    0.164863
    59  H    0.199890
    60  H    0.184949
    61  H    0.382605
    62  H    0.218612
    63  H    0.177196
    64  H    0.201392
 Sum of Mulliken atomic charges =   0.00000

 Dipole moment (field-independent basis, Debye):
    X=             -2.7974    Y=             -4.4885    Z=              6.4131  Tot=              8.3127
 Quadrupole moment (field-independent basis, Debye-Ang):
   XX=           -194.3217   YY=           -155.8807   ZZ=           -173.3909
   XY=             14.1367   XZ=            -17.8640   YZ=              9.8564

 Normal termination of Gaussian 09 at Thu Dec  5 15:59:39 2019.
