 Gaussian 09, Revision A.02,
 Gaussian 09:  EM64L-G09RevA.02 11-Jun-2009

 ---------------------------------
 #SP HF/6-31G* Geom=(ModRedundant)
 ---------------------------------

 ------------
 paramfit run
 ------------
 Symbolic Z-matrix:
 Charge =  0 Multiplicity = 1

                         Standard orientation:
 ---------------------------------------------------------------------
 Center     Atomic      Atomic             Coordinates (Angstroms)
 Number     Number       Type             X           Y           Z
 ---------------------------------------------------------------------
      1          6    20001001       -3.836690    2.831963    0.399199
      2          7    20001014       -4.169246    1.423576    0.454837
      3          6    20001002       -4.355816    0.728260   -0.691390
      4          8    20001024       -4.042841    1.159978   -1.766291
      5          6    90000001       -4.868778   -0.715091   -0.539751
      6          6    90000002       -5.460236   -1.191894   -1.870420
      7          6    90000002       -3.718616   -1.643694   -0.063911
      8          6    90000002       -2.466904   -1.795037   -0.947059
      9          6    90000002       -1.377183   -0.710326   -0.835045
     10          6    20001004       -0.839223   -0.521537    0.563967
     11          6    20001004        0.272161   -1.025716    1.075226
     12          6    90000002        1.278139   -1.916306    0.386306
     13          6    90000002        2.559184   -1.193022   -0.066849
     14          6    90000002        3.336441   -0.575732    1.103509
     15          6    90000002        4.734483    0.028217    0.811330
     16          6    90000002        5.264772    0.628744    2.123432
     17          7    20001014        5.620356   -1.042457    0.374961
     18          6    20001002        6.877403   -0.783292   -0.089501
     19          6    20001001        7.523507   -1.919650   -0.848475
     20          8    20001024        7.433952    0.264575    0.087618
     21          6    20001002        4.598856    1.045559   -0.344241
     22          8    20001024        4.608874    0.670732   -1.485876
     23          7    20001014        4.368570    2.334803   -0.014393
     24          6    20001001        4.282015    3.347695   -1.046266
     25          7    20001014       -5.875523   -0.791866    0.528893
     26          6    20001002       -6.832518    0.157164    0.736677
     27          6    20001001       -7.974205   -0.267390    1.636912
     28          8    20001024       -6.772316    1.252454    0.254125
     29          1    20001035       -4.649795    3.422566   -0.006999
     30          1    20001035       -2.964231    2.976728   -0.220949
     31          1    20001035       -3.614244    3.174479    1.401972
     32          1    20001029       -4.663230    1.102863    1.254467
     33          1    20001034       -4.736613   -1.119963   -2.667997
     34          1    20001034       -5.780087   -2.225151   -1.773920
     35          1    20001034       -6.310581   -0.584225   -2.143508
     36          1    20001034       -4.161970   -2.632091    0.034731
     37          1    20001034       -3.423715   -1.341583    0.936110
     38          1    20001034       -2.011979   -2.743122   -0.675407
     39          1    20001034       -2.756696   -1.887605   -1.988609
     40          1    20001034       -1.756349    0.235765   -1.199063
     41          1    20001034       -0.575797   -0.990885   -1.509509
     42          1    20001033       -1.439967    0.102064    1.206105
     43          1    20001033        0.500431   -0.777331    2.099901
     44          1    20001034        0.830967   -2.388669   -0.479936
     45          1    20001034        1.548324   -2.723506    1.066029
     46          1    20001034        3.173094   -1.912202   -0.601893
     47          1    20001034        2.301760   -0.427371   -0.786808
     48          1    20001034        3.479264   -1.326322    1.877945
     49          1    20001034        2.734576    0.211681    1.541789
     50          1    20001034        5.421658   -0.174351    2.834068
     51          1    20001034        4.545988    1.313835    2.560902
     52          1    20001034        6.205620    1.137886    1.977423
     53          1    20001029        5.169934   -1.817338   -0.055610
     54          1    20001034        8.594130   -1.782452   -0.846121
     55          1    20001034        7.171345   -1.894154   -1.875343
     56          1    20001034        7.275369   -2.886759   -0.424788
     57          1    20001029        4.604127    2.637853    0.901022
     58          1    20001035        3.975503    4.279984   -0.590405
     59          1    20001035        3.546863    3.056858   -1.782194
     60          1    20001035        5.232559    3.492025   -1.549642
     61          1    20001029       -6.081993   -1.708249    0.859284
     62          1    20001034       -8.442690    0.615572    2.046635
     63          1    20001034       -7.643431   -0.913059    2.442672
     64          1    20001034       -8.709348   -0.807573    1.049064
 ---------------------------------------------------------------------

 SCF Done:  E(RHF) =  -1295.61383421     A.U. after   14 cycles

 The electronic state is 1-A.
 Alpha  occ. eigenvalues --  -20.53791 -20.51968 -20.51615 -20.51486 -15.59828
 Alpha  occ. eigenvalues --  -15.57791 -15.57433 -15.56491 -11.36260 -11.34176
 Alpha  occ. eigenvalues --  -11.33711 -11.33573 -11.29078 -11.28462 -11.24871
 Alpha  occ. eigenvalues --  -11.24513 -11.24186 -11.23699 -11.23275 -11.22493
 Alpha  occ. eigenvalues --  -11.22450 -11.22402 -11.22219 -11.22019 -11.21813
 Alpha  occ. eigenvalues --  -11.21709 -11.21478 -11.21399  -1.41165  -1.39275
 Alpha  occ. eigenvalues --   -1.38397  -1.37996  -1.25478  -1.23457  -1.22504
 Alpha  occ. eigenvalues --   -1.21493  -1.10611  -1.09188  -1.07118  -1.04168
 Alpha  occ. eigenvalues --   -1.01221  -0.99407  -0.98681  -0.95150  -0.94956
 Alpha  occ. eigenvalues --   -0.94455  -0.92029  -0.87136  -0.85590  -0.82741
 Alpha  occ. eigenvalues --   -0.81421  -0.79417  -0.78970  -0.76774  -0.76773
 Alpha  occ. eigenvalues --   -0.71780  -0.71138  -0.70689  -0.69399  -0.67906
 Alpha  occ. eigenvalues --   -0.66527  -0.65452  -0.64501  -0.64142  -0.63618
 Alpha  occ. eigenvalues --   -0.62489  -0.62007  -0.61647  -0.61332  -0.61062
 Alpha  occ. eigenvalues --   -0.60906  -0.59446  -0.59156  -0.58761  -0.58527
 Alpha  occ. eigenvalues --   -0.58232  -0.57837  -0.56921  -0.56340  -0.56151
 Alpha  occ. eigenvalues --   -0.55429  -0.54759  -0.54647  -0.54150  -0.53655
 Alpha  occ. eigenvalues --   -0.52986  -0.52669  -0.52458  -0.52098  -0.51578
 Alpha  occ. eigenvalues --   -0.51425  -0.50214  -0.49689  -0.49043  -0.48463
 Alpha  occ. eigenvalues --   -0.48171  -0.46954  -0.46268  -0.44341  -0.43308
 Alpha  occ. eigenvalues --   -0.41406  -0.41127  -0.40981  -0.39851  -0.38739
 Alpha  occ. eigenvalues --   -0.38177  -0.37104  -0.34314
 Alpha virt. eigenvalues --    0.17505   0.18546   0.19749   0.19965   0.20506
 Alpha virt. eigenvalues --    0.21689   0.22077   0.23288   0.23551   0.24136
 Alpha virt. eigenvalues --    0.25287   0.25675   0.26589   0.27272   0.27686

 Mulliken atomic charges:
              1
     1  C   -0.276035
     2  N   -0.760252
     3  C    0.814416
     4  O   -0.634936
     5  C    0.087351
     6  C   -0.456960
     7  C   -0.313480
     8  C   -0.313990
     9  C   -0.373490
    10  C   -0.178822
    11  C   -0.177758
    12  C   -0.353120
    13  C   -0.310429
    14  C   -0.329041
    15  C    0.090974
    16  C   -0.509608
    17  N   -0.787622
    18  C    0.767338
    19  C   -0.595666
    20  O   -0.613954
    21  C    0.820675
    22  O   -0.639491
    23  N   -0.805807
    24  C   -0.275562
    25  N   -0.827611
    26  C    0.728939
    27  C   -0.587463
    28  O   -0.592809
    29  H    0.187407
    30  H    0.193031
    31  H    0.158894
    32  H    0.388679
    33  H    0.203733
    34  H    0.144001
    35  H    0.191230
    36  H    0.154070
    37  H    0.187016
    38  H    0.163664
    39  H    0.176201
    40  H    0.214429
    41  H    0.174046
    42  H    0.182539
    43  H    0.169384
    44  H    0.176472
    45  H    0.159685
    46  H    0.150487
    47  H    0.199560
    48  H    0.172928
    49  H    0.185477
    50  H    0.183348
    51  H    0.148570
    52  H    0.226400
    53  H    0.389768
    54  H    0.210988
    55  H    0.209425
    56  H    0.176187
    57  H    0.395253
    58  H    0.164947
    59  H    0.199959
    60  H    0.184650
    61  H    0.381987
    62  H    0.217575
    63  H    0.179276
    64  H    0.202949
 Sum of Mulliken atomic charges =   0.00000

 Dipole moment (field-independent basis, Debye):
    X=             -3.8231    Y=             -4.6287    Z=              5.7843  Tot=              8.3367
 Quadrupole moment (field-independent basis, Debye-Ang):
   XX=           -181.9505   YY=           -156.6317   ZZ=           -174.7280
   XY=             14.9497   XZ=            -13.3002   YZ=              8.5753

 Normal termination of Gaussian 09 at Thu Dec  5 16:56:39 2019.
