 Gaussian 09, Revision A.02,
 Gaussian 09:  EM64L-G09RevA.02 11-Jun-2009

 ---------------------------------
 #SP HF/6-31G* Geom=(ModRedundant)
 ---------------------------------

 ------------
 paramfit run
 ------------
 Symbolic Z-matrix:
 Charge =  0 Multiplicity = 1

                         Standard orientation:
 ---------------------------------------------------------------------
 Center     Atomic      Atomic             Coordinates (Angstroms)
 Number     Number       Type             X           Y           Z
 ---------------------------------------------------------------------
      1          6    20001001       -3.630837    3.119023    0.788081
      2          7    20001014       -4.033374    1.729302    0.725758
      3          6    20001002       -4.272698    1.148991   -0.473439
      4          8    20001024       -3.955006    1.658994   -1.512051
      5          6    90000001       -4.855666   -0.275225   -0.439640
      6          6    90000002       -5.491112   -0.601846   -1.795136
      7          6    90000002       -3.746742   -1.297868   -0.070734
      8          6    90000002       -2.518173   -1.431049   -0.988621
      9          6    90000002       -1.373319   -0.415419   -0.803042
     10          6    20001004       -0.804816   -0.378788    0.596151
     11          6    20001004        0.287425   -0.980468    1.038586
     12          6    90000002        1.236192   -1.854328    0.253754
     13          6    90000002        2.545020   -1.157220   -0.159255
     14          6    90000002        3.370627   -0.685657    1.045284
     15          6    90000002        4.792747   -0.127361    0.779716
     16          6    90000002        5.373086    0.326997    2.128869
     17          7    20001014        5.616384   -1.197005    0.232893
     18          6    20001002        6.877571   -0.959418   -0.231883
     19          6    20001001        7.453438   -2.053868   -1.100998
     20          8    20001024        7.489148    0.039906    0.025929
     21          6    20001002        4.690865    0.994424   -0.278557
     22          8    20001024        4.664151    0.722884   -1.448805
     23          7    20001014        4.531306    2.258845    0.168390
     24          6    20001001        4.480124    3.362762   -0.768067
     25          7    20001014       -5.848280   -0.397539    0.637944
     26          6    20001002       -7.187845   -0.532655    0.421197
     27          6    20001001       -7.989514   -0.996176    1.619778
     28          8    20001024       -7.699314   -0.291544   -0.635403
     29          1    20001035       -4.419210    3.782675    0.451950
     30          1    20001035       -2.761910    3.275555    0.165839
     31          1    20001035       -3.375780    3.359402    1.812541
     32          1    20001029       -4.530478    1.363161    1.503648
     33          1    20001034       -4.777256   -0.494642   -2.597539
     34          1    20001034       -5.861332   -1.622654   -1.783892
     35          1    20001034       -6.313739    0.068738   -1.996454
     36          1    20001034       -4.237986   -2.268181   -0.050927
     37          1    20001034       -3.421419   -1.100992    0.945969
     38          1    20001034       -2.107669   -2.420756   -0.810898
     39          1    20001034       -2.828430   -1.416017   -2.028279
     40          1    20001034       -1.709705    0.576826   -1.074441
     41          1    20001034       -0.597743   -0.673670   -1.515519
     42          1    20001033       -1.363164    0.213764    1.302721
     43          1    20001033        0.543872   -0.835970    2.076428
     44          1    20001034        0.752271   -2.225035   -0.641714
     45          1    20001034        1.475688   -2.731217    0.854004
     46          1    20001034        3.113340   -1.855052   -0.767874
     47          1    20001034        2.315537   -0.318699   -0.803500
     48          1    20001034        3.487278   -1.508432    1.747402
     49          1    20001034        2.816286    0.088096    1.563323
     50          1    20001034        5.500130   -0.543010    2.762531
     51          1    20001034        4.696796    1.004766    2.639401
     52          1    20001034        6.336124    0.800366    2.009631
     53          1    20001029        5.120669   -1.907360   -0.255343
     54          1    20001034        8.529542   -1.970109   -1.107923
     55          1    20001034        7.087105   -1.919635   -2.114362
     56          1    20001034        7.163264   -3.041573   -0.759501
     57          1    20001029        4.796101    2.467112    1.102102
     58          1    20001035        4.228331    4.264582   -0.225625
     59          1    20001035        3.719843    3.175141   -1.511972
     60          1    20001035        5.428821    3.504616   -1.275616
     61          1    20001029       -5.502176   -0.749856    1.502602
     62          1    20001034       -9.020762   -0.704490    1.484059
     63          1    20001034       -7.612668   -0.585145    2.549611
     64          1    20001034       -7.941897   -2.078545    1.683113
 ---------------------------------------------------------------------

 SCF Done:  E(RHF) =  -1295.60240597     A.U. after   14 cycles

 The electronic state is 1-A.
 Alpha  occ. eigenvalues --  -20.52734 -20.52532 -20.52099 -20.51659 -15.59590
 Alpha  occ. eigenvalues --  -15.58620 -15.57977 -15.57579 -11.35850 -11.34305
 Alpha  occ. eigenvalues --  -11.34145 -11.33747 -11.28863 -11.28638 -11.25907
 Alpha  occ. eigenvalues --  -11.25061 -11.24214 -11.23809 -11.23478 -11.22633
 Alpha  occ. eigenvalues --  -11.22552 -11.22499 -11.22425 -11.22373 -11.22178
 Alpha  occ. eigenvalues --  -11.21882 -11.21639 -11.19377  -1.40306  -1.39425
 Alpha  occ. eigenvalues --   -1.39378  -1.38150  -1.25570  -1.23608  -1.22875
 Alpha  occ. eigenvalues --   -1.22687  -1.10802  -1.09215  -1.07218  -1.04253
 Alpha  occ. eigenvalues --   -1.01226  -0.99146  -0.98700  -0.96170  -0.95084
 Alpha  occ. eigenvalues --   -0.94552  -0.92138  -0.87339  -0.85813  -0.82749
 Alpha  occ. eigenvalues --   -0.81051  -0.79570  -0.79157  -0.77245  -0.76943
 Alpha  occ. eigenvalues --   -0.72976  -0.72006  -0.71300  -0.68865  -0.68030
 Alpha  occ. eigenvalues --   -0.66876  -0.65832  -0.64597  -0.63938  -0.63598
 Alpha  occ. eigenvalues --   -0.62885  -0.62678  -0.61873  -0.61480  -0.61264
 Alpha  occ. eigenvalues --   -0.61090  -0.60162  -0.59394  -0.58760  -0.58381
 Alpha  occ. eigenvalues --   -0.58185  -0.57727  -0.56441  -0.56222  -0.55742
 Alpha  occ. eigenvalues --   -0.55467  -0.55059  -0.54851  -0.54489  -0.53981
 Alpha  occ. eigenvalues --   -0.53259  -0.53098  -0.52533  -0.51966  -0.51604
 Alpha  occ. eigenvalues --   -0.51285  -0.50177  -0.49813  -0.49236  -0.48579
 Alpha  occ. eigenvalues --   -0.48259  -0.46801  -0.46473  -0.44620  -0.43781
 Alpha  occ. eigenvalues --   -0.41567  -0.41116  -0.40656  -0.39299  -0.38902
 Alpha  occ. eigenvalues --   -0.38371  -0.38352  -0.34631
 Alpha virt. eigenvalues --    0.17182   0.18319   0.19283   0.19598   0.20021
 Alpha virt. eigenvalues --    0.21532   0.21893   0.22912   0.23189   0.23914
 Alpha virt. eigenvalues --    0.25298   0.25882   0.26067   0.26736   0.27472

 Mulliken atomic charges:
              1
     1  C   -0.280583
     2  N   -0.791802
     3  C    0.816171
     4  O   -0.616242
     5  C    0.086637
     6  C   -0.479998
     7  C   -0.321471
     8  C   -0.314398
     9  C   -0.373948
    10  C   -0.177424
    11  C   -0.176430
    12  C   -0.353767
    13  C   -0.310766
    14  C   -0.329010
    15  C    0.091141
    16  C   -0.509534
    17  N   -0.787618
    18  C    0.767246
    19  C   -0.595717
    20  O   -0.613907
    21  C    0.820556
    22  O   -0.639022
    23  N   -0.806168
    24  C   -0.275565
    25  N   -0.845423
    26  C    0.757182
    27  C   -0.588158
    28  O   -0.590116
    29  H    0.179325
    30  H    0.204793
    31  H    0.165747
    32  H    0.382555
    33  H    0.188008
    34  H    0.153677
    35  H    0.245827
    36  H    0.175617
    37  H    0.157397
    38  H    0.163998
    39  H    0.184454
    40  H    0.209893
    41  H    0.175783
    42  H    0.174989
    43  H    0.168911
    44  H    0.178105
    45  H    0.160572
    46  H    0.151665
    47  H    0.199477
    48  H    0.173232
    49  H    0.184346
    50  H    0.183612
    51  H    0.147902
    52  H    0.226780
    53  H    0.389906
    54  H    0.211269
    55  H    0.209654
    56  H    0.176401
    57  H    0.395196
    58  H    0.164470
    59  H    0.199752
    60  H    0.185304
    61  H    0.377424
    62  H    0.220095
    63  H    0.173912
    64  H    0.198085
 Sum of Mulliken atomic charges =   0.00000

 Dipole moment (field-independent basis, Debye):
    X=             -1.6554    Y=             -2.4930    Z=              7.5864  Tot=              8.1553
 Quadrupole moment (field-independent basis, Debye-Ang):
   XX=           -211.6107   YY=           -155.2005   ZZ=           -171.9931
   XY=              0.2080   XZ=            -26.1208   YZ=             10.2104

 Normal termination of Gaussian 09 at Thu Dec  5 16:25:37 2019.
