 Gaussian 09, Revision A.02,
 Gaussian 09:  EM64L-G09RevA.02 11-Jun-2009

 ---------------------------------
 #SP HF/6-31G* Geom=(ModRedundant)
 ---------------------------------

 ------------
 paramfit run
 ------------
 Symbolic Z-matrix:
 Charge =  0 Multiplicity = 1

                         Standard orientation:
 ---------------------------------------------------------------------
 Center     Atomic      Atomic             Coordinates (Angstroms)
 Number     Number       Type             X           Y           Z
 ---------------------------------------------------------------------
      1          6    20001001       -3.592231    3.326227    0.873978
      2          7    20001014       -4.044455    1.958470    0.725718
      3          6    20001002       -4.286651    1.457594   -0.508209
      4          8    20001024       -3.934733    2.014323   -1.511181
      5          6    90000001       -4.921889    0.056649   -0.564876
      6          6    90000002       -5.548218   -0.167285   -1.945241
      7          6    90000002       -3.856936   -1.026394   -0.241617
      8          6    90000002       -2.620275   -1.152424   -1.149593
      9          6    90000002       -1.441905   -0.192799   -0.890364
     10          6    20001004       -0.893762   -0.258178    0.515888
     11          6    20001004        0.168837   -0.924864    0.936801
     12          6    90000002        1.096741   -1.787000    0.114933
     13          6    90000002        2.436370   -1.116802   -0.239742
     14          6    90000002        3.260318   -0.746699    1.000841
     15          6    90000002        4.705820   -0.227726    0.786752
     16          6    90000002        5.281866    0.126074    2.167493
     17          7    20001014        5.497899   -1.294206    0.189455
     18          6    20001002        6.773864   -1.077674   -0.244233
     19          6    20001001        7.322353   -2.141046   -1.167924
     20          8    20001024        7.417681   -0.118490    0.079197
     21          6    20001002        4.661224    0.956197   -0.205751
     22          8    20001024        4.642353    0.753725   -1.390055
     23          7    20001014        4.541359    2.197857    0.311834
     24          6    20001001        4.544917    3.355036   -0.559446
     25          7    20001014       -5.934575   -0.090256    0.490737
     26          6    20001002       -6.799561   -1.141637    0.568627
     27          6    20001001       -7.508442   -1.293795    1.898460
     28          8    20001024       -6.996659   -1.886010   -0.349633
     29          1    20001035       -4.350544    4.037225    0.566745
     30          1    20001035       -2.708796    3.485670    0.273274
     31          1    20001035       -3.344124    3.497453    1.913919
     32          1    20001029       -4.566409    1.567009    1.474455
     33          1    20001034       -4.818805   -0.040860   -2.730674
     34          1    20001034       -5.955744   -1.172449   -1.998194
     35          1    20001034       -6.342553    0.544145   -2.117943
     36          1    20001034       -4.383670   -1.977140   -0.284665
     37          1    20001034       -3.540096   -0.900754    0.788969
     38          1    20001034       -2.249080   -2.165416   -1.024372
     39          1    20001034       -2.913942   -1.065899   -2.190576
     40          1    20001034       -1.737525    0.825345   -1.107980
     41          1    20001034       -0.665586   -0.438459   -1.606474
     42          1    20001033       -1.440679    0.313192    1.248370
     43          1    20001033        0.414615   -0.850115    1.984545
     44          1    20001034        0.613213   -2.087100   -0.806808
     45          1    20001034        1.294781   -2.705376    0.666259
     46          1    20001034        2.987903   -1.799220   -0.880439
     47          1    20001034        2.247598   -0.234545   -0.837085
     48          1    20001034        3.336046   -1.612353    1.655398
     49          1    20001034        2.726913    0.016154    1.555715
     50          1    20001034        5.367287   -0.783145    2.751105
     51          1    20001034        4.623203    0.798174    2.707702
     52          1    20001034        6.263312    0.569097    2.088548
     53          1    20001029        4.983948   -1.956171   -0.345679
     54          1    20001034        8.400785   -2.097420   -1.155931
     55          1    20001034        6.976624   -1.935015   -2.176461
     56          1    20001034        6.991008   -3.135215   -0.888242
     57          1    20001029        4.799398    2.341911    1.259449
     58          1    20001035        4.318145    4.232908    0.031179
     59          1    20001035        3.789656    3.239215   -1.322854
     60          1    20001035        5.505777    3.490239   -1.045472
     61          1    20001029       -5.738278    0.385353    1.343268
     62          1    20001034       -8.412885   -1.865203    1.748636
     63          1    20001034       -7.750715   -0.336632    2.346449
     64          1    20001034       -6.866158   -1.836770    2.584354
 ---------------------------------------------------------------------

 SCF Done:  E(RHF) =  -1295.60147471     A.U. after   14 cycles

 The electronic state is 1-A.
 Alpha  occ. eigenvalues --  -20.53540 -20.53100 -20.52056 -20.51634 -15.60186
 Alpha  occ. eigenvalues --  -15.59638 -15.57970 -15.57527 -11.35991 -11.35401
 Alpha  occ. eigenvalues --  -11.34259 -11.33722 -11.28944 -11.28589 -11.26909
 Alpha  occ. eigenvalues --  -11.25083 -11.24306 -11.23401 -11.22601 -11.22503
 Alpha  occ. eigenvalues --  -11.22464 -11.22312 -11.22209 -11.22026 -11.21858
 Alpha  occ. eigenvalues --  -11.21845 -11.21408 -11.19539  -1.40665  -1.40116
 Alpha  occ. eigenvalues --   -1.39390  -1.38118  -1.26334  -1.23693  -1.23558
 Alpha  occ. eigenvalues --   -1.22680  -1.10583  -1.08967  -1.07115  -1.04142
 Alpha  occ. eigenvalues --   -1.01082  -0.99219  -0.98720  -0.97182  -0.95007
 Alpha  occ. eigenvalues --   -0.94349  -0.91762  -0.87387  -0.85882  -0.82766
 Alpha  occ. eigenvalues --   -0.81572  -0.80373  -0.79486  -0.76918  -0.76481
 Alpha  occ. eigenvalues --   -0.74309  -0.71797  -0.71101  -0.68052  -0.67690
 Alpha  occ. eigenvalues --   -0.66829  -0.66037  -0.65080  -0.64352  -0.63945
 Alpha  occ. eigenvalues --   -0.63279  -0.62968  -0.61799  -0.61440  -0.61352
 Alpha  occ. eigenvalues --   -0.61097  -0.60258  -0.59382  -0.58774  -0.58693
 Alpha  occ. eigenvalues --   -0.57824  -0.57613  -0.56768  -0.56500  -0.56349
 Alpha  occ. eigenvalues --   -0.56095  -0.55182  -0.54831  -0.54523  -0.53736
 Alpha  occ. eigenvalues --   -0.53653  -0.53087  -0.52393  -0.52054  -0.51791
 Alpha  occ. eigenvalues --   -0.51136  -0.49989  -0.49726  -0.48784  -0.48050
 Alpha  occ. eigenvalues --   -0.47812  -0.47097  -0.46355  -0.44300  -0.43419
 Alpha  occ. eigenvalues --   -0.41530  -0.41420  -0.41073  -0.40497  -0.38874
 Alpha  occ. eigenvalues --   -0.38730  -0.38330  -0.34442
 Alpha virt. eigenvalues --    0.17166   0.17838   0.18261   0.19546   0.19638
 Alpha virt. eigenvalues --    0.21575   0.21943   0.22975   0.23238   0.24172
 Alpha virt. eigenvalues --    0.25046   0.25876   0.26538   0.26649   0.27408

 Mulliken atomic charges:
              1
     1  C   -0.283910
     2  N   -0.794673
     3  C    0.808959
     4  O   -0.612124
     5  C    0.069958
     6  C   -0.485120
     7  C   -0.308721
     8  C   -0.317511
     9  C   -0.373391
    10  C   -0.173714
    11  C   -0.176415
    12  C   -0.353791
    13  C   -0.310907
    14  C   -0.328811
    15  C    0.091123
    16  C   -0.509479
    17  N   -0.787574
    18  C    0.767200
    19  C   -0.595712
    20  O   -0.614193
    21  C    0.820579
    22  O   -0.638906
    23  N   -0.806302
    24  C   -0.275361
    25  N   -0.826011
    26  C    0.765712
    27  C   -0.591658
    28  O   -0.598341
    29  H    0.180620
    30  H    0.212357
    31  H    0.170427
    32  H    0.371233
    33  H    0.187645
    34  H    0.235621
    35  H    0.168849
    36  H    0.201059
    37  H    0.152833
    38  H    0.164327
    39  H    0.179294
    40  H    0.202662
    41  H    0.174877
    42  H    0.170968
    43  H    0.167885
    44  H    0.179447
    45  H    0.161021
    46  H    0.151671
    47  H    0.198757
    48  H    0.173547
    49  H    0.183734
    50  H    0.183835
    51  H    0.147510
    52  H    0.226553
    53  H    0.390178
    54  H    0.211104
    55  H    0.209645
    56  H    0.176686
    57  H    0.395102
    58  H    0.163896
    59  H    0.199474
    60  H    0.185383
    61  H    0.365998
    62  H    0.221200
    63  H    0.177457
    64  H    0.196238
 Sum of Mulliken atomic charges =   0.00000

 Dipole moment (field-independent basis, Debye):
    X=             -2.3742    Y=              0.4686    Z=              7.3303  Tot=              7.7195
 Quadrupole moment (field-independent basis, Debye-Ang):
   XX=           -202.8548   YY=           -162.0373   ZZ=           -169.5567
   XY=            -19.4585   XZ=            -24.1897   YZ=             11.3763

 Normal termination of Gaussian 09 at Thu Dec  5 16:56:47 2019.
