 Gaussian 09, Revision A.02,
 Gaussian 09:  EM64L-G09RevA.02 11-Jun-2009

 ---------------------------------
 #SP HF/6-31G* Geom=(ModRedundant)
 ---------------------------------

 ------------
 paramfit run
 ------------
 Symbolic Z-matrix:
 Charge =  0 Multiplicity = 1

                         Standard orientation:
 ---------------------------------------------------------------------
 Center     Atomic      Atomic             Coordinates (Angstroms)
 Number     Number       Type             X           Y           Z
 ---------------------------------------------------------------------
      1          6    20001001       -3.940208    2.970013    0.326977
      2          7    20001014       -4.304314    1.569331    0.274401
      3          6    20001002       -4.467435    0.958756   -0.922552
      4          8    20001024       -4.109796    1.455622   -1.954523
      5          6    90000001       -5.015740   -0.479132   -0.887543
      6          6    90000002       -5.572655   -0.849614   -2.266104
      7          6    90000002       -3.902042   -1.464938   -0.440929
      8          6    90000002       -2.625173   -1.584809   -1.292324
      9          6    90000002       -1.516949   -0.536242   -1.071000
     10          6    20001004       -1.021888   -0.456442    0.354070
     11          6    20001004        0.060914   -1.020453    0.864157
     12          6    90000002        1.070060   -1.885159    0.147455
     13          6    90000002        2.380553   -1.162848   -0.213710
     14          6    90000002        3.131439   -0.645634    1.020622
     15          6    90000002        4.550950   -0.056124    0.815412
     16          6    90000002        5.049993    0.440466    2.182088
     17          7    20001014        5.427860   -1.114919    0.334252
     18          6    20001002        6.704877   -0.854169   -0.071081
     19          6    20001001        7.351530   -1.950737   -0.886055
     20          8    20001024        7.277397    0.165725    0.195712
     21          6    20001002        4.475475    1.040902   -0.270665
     22          8    20001024        4.515454    0.745036   -1.434620
     23          7    20001014        4.261831    2.309576    0.140192
     24          6    20001001        4.231183    3.392535   -0.821298
     25          7    20001014       -6.058851   -0.605248    0.140779
     26          6    20001002       -5.847121   -0.367187    1.466739
     27          6    20001001       -7.102018   -0.203166    2.298875
     28          8    20001024       -4.750156   -0.303812    1.945062
     29          1    20001035       -4.726618    3.606010   -0.062918
     30          1    20001035       -3.044739    3.136370   -0.253698
     31          1    20001035       -3.743977    3.237699    1.357603
     32          1    20001029       -4.831312    1.206293    1.033850
     33          1    20001034       -4.821558   -0.740244   -3.033454
     34          1    20001034       -5.917444   -1.879248   -2.251561
     35          1    20001034       -6.400335   -0.204839   -2.523274
     36          1    20001034       -4.369354   -2.447072   -0.425057
     37          1    20001034       -3.634179   -1.239064    0.586451
     38          1    20001034       -2.199798   -2.559710   -1.072688
     39          1    20001034       -2.882092   -1.598964   -2.346443
     40          1    20001034       -1.863597    0.441217   -1.380472
     41          1    20001034       -0.699740   -0.788699   -1.737534
     42          1    20001033       -1.630241    0.135653    1.018482
     43          1    20001033        0.260234   -0.848287    1.910288
     44          1    20001034        0.641978   -2.286422   -0.763149
     45          1    20001034        1.300272   -2.743158    0.777879
     46          1    20001034        2.996469   -1.857917   -0.777539
     47          1    20001034        2.163544   -0.343832   -0.886725
     48          1    20001034        3.232446   -1.450667    1.745367
     49          1    20001034        2.532226    0.123835    1.493075
     50          1    20001034        5.166055   -0.412893    2.840029
     51          1    20001034        4.331802    1.110687    2.642944
     52          1    20001034        6.005791    0.936153    2.101571
     53          1    20001029        4.975616   -1.847677   -0.162993
     54          1    20001034        8.424160   -1.839232   -0.840280
     55          1    20001034        7.034312   -1.846678   -1.919336
     56          1    20001034        7.068932   -2.938498   -0.538421
     57          1    20001029        4.473227    2.543577    1.081396
     58          1    20001035        3.929592    4.298352   -0.311925
     59          1    20001035        3.514876    3.170165   -1.598524
     60          1    20001035        5.200788    3.548624   -1.283097
     61          1    20001029       -6.995200   -0.504857   -0.182822
     62          1    20001034       -6.865086   -0.409668    3.332409
     63          1    20001034       -7.901540   -0.857186    1.969373
     64          1    20001034       -7.448842    0.822310    2.221980
 ---------------------------------------------------------------------

 SCF Done:  E(RHF) =  -1295.59296403     A.U. after   14 cycles

 The electronic state is 1-A.
 Alpha  occ. eigenvalues --  -20.54778 -20.52131 -20.51686 -20.51181 -15.60420
 Alpha  occ. eigenvalues --  -15.57516 -15.57104 -15.56600 -11.37416 -11.33892
 Alpha  occ. eigenvalues --  -11.33719 -11.33264 -11.29018 -11.28089 -11.25271
 Alpha  occ. eigenvalues --  -11.24903 -11.24669 -11.22781 -11.22454 -11.22198
 Alpha  occ. eigenvalues --  -11.21668 -11.21610 -11.21370 -11.21203 -11.21094
 Alpha  occ. eigenvalues --  -11.20977 -11.20766 -11.20473  -1.43004  -1.39036
 Alpha  occ. eigenvalues --   -1.38981  -1.37704  -1.26018  -1.23125  -1.22229
 Alpha  occ. eigenvalues --   -1.22120  -1.09827  -1.08770  -1.06724  -1.03755
 Alpha  occ. eigenvalues --   -1.01221  -0.99372  -0.98391  -0.95784  -0.94582
 Alpha  occ. eigenvalues --   -0.93956  -0.91304  -0.86840  -0.85243  -0.82115
 Alpha  occ. eigenvalues --   -0.81072  -0.79560  -0.79039  -0.77666  -0.76476
 Alpha  occ. eigenvalues --   -0.72417  -0.71136  -0.70804  -0.70031  -0.67515
 Alpha  occ. eigenvalues --   -0.66316  -0.65681  -0.64144  -0.63680  -0.63217
 Alpha  occ. eigenvalues --   -0.62829  -0.61878  -0.61410  -0.61202  -0.60929
 Alpha  occ. eigenvalues --   -0.60650  -0.60409  -0.59367  -0.58805  -0.58244
 Alpha  occ. eigenvalues --   -0.57734  -0.56967  -0.56387  -0.55969  -0.55777
 Alpha  occ. eigenvalues --   -0.55188  -0.54870  -0.54532  -0.54331  -0.53556
 Alpha  occ. eigenvalues --   -0.53136  -0.52781  -0.52619  -0.52354  -0.51622
 Alpha  occ. eigenvalues --   -0.50813  -0.49826  -0.49379  -0.48320  -0.47961
 Alpha  occ. eigenvalues --   -0.47313  -0.45792  -0.45599  -0.43980  -0.43908
 Alpha  occ. eigenvalues --   -0.41919  -0.41086  -0.40693  -0.38731  -0.38438
 Alpha  occ. eigenvalues --   -0.37881  -0.37849  -0.33294
 Alpha virt. eigenvalues --    0.16483   0.18505   0.19690   0.20062   0.20833
 Alpha virt. eigenvalues --    0.22007   0.22445   0.23504   0.23758   0.24258
 Alpha virt. eigenvalues --    0.25798   0.26204   0.27048   0.27566   0.27891

 Mulliken atomic charges:
              1
     1  C   -0.280962
     2  N   -0.790692
     3  C    0.789103
     4  O   -0.626671
     5  C    0.067294
     6  C   -0.482491
     7  C   -0.337792
     8  C   -0.313547
     9  C   -0.371960
    10  C   -0.178322
    11  C   -0.182091
    12  C   -0.351840
    13  C   -0.309981
    14  C   -0.328564
    15  C    0.090594
    16  C   -0.509588
    17  N   -0.787526
    18  C    0.767387
    19  C   -0.595561
    20  O   -0.614720
    21  C    0.820923
    22  O   -0.639887
    23  N   -0.805586
    24  C   -0.275009
    25  N   -0.794018
    26  C    0.702190
    27  C   -0.582809
    28  O   -0.603669
    29  H    0.162304
    30  H    0.201137
    31  H    0.170665
    32  H    0.427341
    33  H    0.220709
    34  H    0.169844
    35  H    0.164248
    36  H    0.163106
    37  H    0.263403
    38  H    0.162303
    39  H    0.160957
    40  H    0.203867
    41  H    0.169184
    42  H    0.196805
    43  H    0.169137
    44  H    0.175791
    45  H    0.158623
    46  H    0.148255
    47  H    0.197908
    48  H    0.173148
    49  H    0.186157
    50  H    0.183471
    51  H    0.148781
    52  H    0.225157
    53  H    0.390150
    54  H    0.210168
    55  H    0.209083
    56  H    0.176402
    57  H    0.395105
    58  H    0.163980
    59  H    0.199593
    60  H    0.183915
    61  H    0.385103
    62  H    0.222332
    63  H    0.191096
    64  H    0.196568
 Sum of Mulliken atomic charges =   0.00000

 Dipole moment (field-independent basis, Debye):
    X=             -7.3002    Y=             -1.3587    Z=              3.3978  Tot=              8.1661
 Quadrupole moment (field-independent basis, Debye-Ang):
   XX=           -148.1879   YY=           -158.0401   ZZ=           -179.1139
   XY=             -7.0890   XZ=             -3.5754   YZ=             12.3266

 Normal termination of Gaussian 09 at Thu Dec  5 15:59:52 2019.
