 Gaussian 09, Revision A.02,
 Gaussian 09:  EM64L-G09RevA.02 11-Jun-2009

 ---------------------------------
 #SP HF/6-31G* Geom=(ModRedundant)
 ---------------------------------

 ------------
 paramfit run
 ------------
 Symbolic Z-matrix:
 Charge =  0 Multiplicity = 1

                         Standard orientation:
 ---------------------------------------------------------------------
 Center     Atomic      Atomic             Coordinates (Angstroms)
 Number     Number       Type             X           Y           Z
 ---------------------------------------------------------------------
      1          6    20001001       -3.888408    2.804481    0.202703
      2          7    20001014       -4.214079    1.398285    0.320163
      3          6    20001002       -4.386832    0.650020   -0.794451
      4          8    20001024       -4.066592    1.033670   -1.885324
      5          6    90000001       -4.893568   -0.787708   -0.581044
      6          6    90000002       -5.470693   -1.328445   -1.893435
      7          6    90000002       -3.742836   -1.686988   -0.053112
      8          6    90000002       -2.482562   -1.871683   -0.917539
      9          6    90000002       -1.399563   -0.776854   -0.846120
     10          6    20001004       -0.875033   -0.520986    0.547321
     11          6    20001004        0.234391   -0.994887    1.090785
     12          6    90000002        1.251084   -1.910501    0.452241
     13          6    90000002        2.532302   -1.201592   -0.022624
     14          6    90000002        3.295905   -0.526836    1.124777
     15          6    90000002        4.693309    0.070917    0.817209
     16          6    90000002        5.208787    0.734048    2.104838
     17          7    20001014        5.588603   -1.013664    0.438182
     18          6    20001002        6.848350   -0.769031   -0.026845
     19          6    20001001        7.507096   -1.935394   -0.727172
     20          8    20001024        7.397821    0.288980    0.106703
     21          6    20001002        4.562626    1.033334   -0.385040
     22          8    20001024        4.584733    0.606532   -1.508106
     23          7    20001014        4.322685    2.335050   -0.116812
     24          6    20001001        4.239997    3.298978   -1.194870
     25          7    20001014       -5.909342   -0.820988    0.481279
     26          6    20001002       -6.609981    0.274117    0.893008
     27          6    20001001       -7.838090   -0.024805    1.727581
     28          8    20001024       -6.275168    1.393518    0.626583
     29          1    20001035       -4.700953    3.371218   -0.237215
     30          1    20001035       -3.011249    2.925520   -0.415896
     31          1    20001035       -3.676663    3.193937    1.190550
     32          1    20001029       -4.713456    1.111860    1.129403
     33          1    20001034       -4.740408   -1.289148   -2.687205
     34          1    20001034       -5.785983   -2.357964   -1.752295
     35          1    20001034       -6.321747   -0.738756   -2.201496
     36          1    20001034       -4.181875   -2.672291    0.087041
     37          1    20001034       -3.458404   -1.337611    0.934468
     38          1    20001034       -2.025115   -2.803715   -0.598673
     39          1    20001034       -2.762612   -2.013619   -1.956192
     40          1    20001034       -1.780424    0.149370   -1.256506
     41          1    20001034       -0.590768   -1.083578   -1.500035
     42          1    20001033       -1.484704    0.128058    1.154904
     43          1    20001033        0.452257   -0.698422    2.104888
     44          1    20001034        0.814092   -2.424660   -0.395193
     45          1    20001034        1.519442   -2.684096    1.170661
     46          1    20001034        3.154686   -1.941119   -0.518722
     47          1    20001034        2.277278   -0.471276   -0.779216
     48          1    20001034        3.435771   -1.240250    1.934106
     49          1    20001034        2.686066    0.276475    1.521185
     50          1    20001034        5.363556   -0.034666    2.852972
     51          1    20001034        4.482577    1.434451    2.504134
     52          1    20001034        6.148219    1.241235    1.943696
     53          1    20001029        5.146077   -1.810026    0.039823
     54          1    20001034        8.576924   -1.792207   -0.721895
     55          1    20001034        7.163931   -1.959069   -1.757125
     56          1    20001034        7.260266   -2.883405   -0.261626
     57          1    20001029        4.548523    2.681143    0.785700
     58          1    20001035        3.924583    4.249479   -0.785014
     59          1    20001035        3.512935    2.970514   -1.922962
     60          1    20001035        5.194204    3.425386   -1.696132
     61          1    20001029       -6.339394   -1.705563    0.636611
     62          1    20001034       -8.085108    0.850087    2.311120
     63          1    20001034       -7.690508   -0.873595    2.385856
     64          1    20001034       -8.671109   -0.247195    1.068473
 ---------------------------------------------------------------------

 SCF Done:  E(RHF) =  -1295.55644810     A.U. after   14 cycles

 The electronic state is 1-A.
 Alpha  occ. eigenvalues --  -20.53494 -20.51875 -20.51370 -20.51227 -15.60318
 Alpha  occ. eigenvalues --  -15.57676 -15.57327 -15.54341 -11.36861 -11.34083
 Alpha  occ. eigenvalues --  -11.33457 -11.33100 -11.29116 -11.28339 -11.24765
 Alpha  occ. eigenvalues --  -11.24722 -11.23349 -11.23288 -11.23123 -11.22370
 Alpha  occ. eigenvalues --  -11.22193 -11.22183 -11.22045 -11.21968 -11.21728
 Alpha  occ. eigenvalues --  -11.21595 -11.21515 -11.21098  -1.42960  -1.39171
 Alpha  occ. eigenvalues --   -1.37916  -1.37891  -1.25803  -1.23348  -1.22390
 Alpha  occ. eigenvalues --   -1.20698  -1.10388  -1.09067  -1.07005  -1.04080
 Alpha  occ. eigenvalues --   -1.01263  -0.99479  -0.98598  -0.94974  -0.94560
 Alpha  occ. eigenvalues --   -0.94183  -0.91793  -0.86984  -0.85455  -0.82818
 Alpha  occ. eigenvalues --   -0.81717  -0.79379  -0.79100  -0.77091  -0.76662
 Alpha  occ. eigenvalues --   -0.71687  -0.71091  -0.70738  -0.70117  -0.67793
 Alpha  occ. eigenvalues --   -0.66305  -0.65135  -0.64601  -0.64133  -0.63468
 Alpha  occ. eigenvalues --   -0.62275  -0.62038  -0.61556  -0.61232  -0.60880
 Alpha  occ. eigenvalues --   -0.60646  -0.59505  -0.58978  -0.58605  -0.58417
 Alpha  occ. eigenvalues --   -0.58001  -0.57560  -0.56953  -0.56268  -0.56041
 Alpha  occ. eigenvalues --   -0.55345  -0.54673  -0.54622  -0.54525  -0.53482
 Alpha  occ. eigenvalues --   -0.52862  -0.52502  -0.52113  -0.51813  -0.51347
 Alpha  occ. eigenvalues --   -0.51097  -0.49995  -0.49588  -0.48717  -0.48343
 Alpha  occ. eigenvalues --   -0.47926  -0.47050  -0.46106  -0.44361  -0.43990
 Alpha  occ. eigenvalues --   -0.41294  -0.40885  -0.40852  -0.39919  -0.38629
 Alpha  occ. eigenvalues --   -0.38063  -0.34038  -0.33508
 Alpha virt. eigenvalues --    0.17609   0.17769   0.19743   0.19858   0.21011
 Alpha virt. eigenvalues --    0.21798   0.22207   0.23440   0.23697   0.24778
 Alpha virt. eigenvalues --    0.25319   0.25865   0.26684   0.27442   0.27796

 Mulliken atomic charges:
              1
     1  C   -0.265438
     2  N   -0.745261
     3  C    0.800042
     4  O   -0.641298
     5  C    0.081126
     6  C   -0.456663
     7  C   -0.291421
     8  C   -0.316437
     9  C   -0.372835
    10  C   -0.178491
    11  C   -0.178866
    12  C   -0.352554
    13  C   -0.310243
    14  C   -0.328966
    15  C    0.090888
    16  C   -0.509619
    17  N   -0.787629
    18  C    0.767371
    19  C   -0.595628
    20  O   -0.614106
    21  C    0.820774
    22  O   -0.639673
    23  N   -0.805625
    24  C   -0.275480
    25  N   -0.818080
    26  C    0.730896
    27  C   -0.583128
    28  O   -0.612028
    29  H    0.175068
    30  H    0.188217
    31  H    0.156603
    32  H    0.400731
    33  H    0.210289
    34  H    0.144329
    35  H    0.181217
    36  H    0.150674
    37  H    0.186767
    38  H    0.162544
    39  H    0.172350
    40  H    0.216127
    41  H    0.172176
    42  H    0.184945
    43  H    0.168710
    44  H    0.176143
    45  H    0.158953
    46  H    0.149735
    47  H    0.199522
    48  H    0.172710
    49  H    0.185938
    50  H    0.183203
    51  H    0.148780
    52  H    0.226077
    53  H    0.389801
    54  H    0.210743
    55  H    0.209331
    56  H    0.176138
    57  H    0.395207
    58  H    0.164951
    59  H    0.200075
    60  H    0.184256
    61  H    0.384891
    62  H    0.216481
    63  H    0.180441
    64  H    0.204247
 Sum of Mulliken atomic charges =   0.00000

 Dipole moment (field-independent basis, Debye):
    X=             -5.0746    Y=             -4.3898    Z=              5.2374  Tot=              8.5119
 Quadrupole moment (field-independent basis, Debye-Ang):
   XX=           -168.6053   YY=           -157.1933   ZZ=           -176.5276
   XY=             13.0758   XZ=             -9.3636   YZ=              7.1121

 Normal termination of Gaussian 09 at Thu Dec  5 16:46:09 2019.
