 Gaussian 09, Revision A.02,
 Gaussian 09:  EM64L-G09RevA.02 11-Jun-2009

 ---------------------------------
 #SP HF/6-31G* Geom=(ModRedundant)
 ---------------------------------

 ------------
 paramfit run
 ------------
 Symbolic Z-matrix:
 Charge =  0 Multiplicity = 1

                         Standard orientation:
 ---------------------------------------------------------------------
 Center     Atomic      Atomic             Coordinates (Angstroms)
 Number     Number       Type             X           Y           Z
 ---------------------------------------------------------------------
      1          6    20001001       -3.594221    3.218897    0.806178
      2          7    20001014       -4.019052    1.836549    0.729514
      3          6    20001002       -4.265546    1.271982   -0.475730
      4          8    20001024       -3.937766    1.786944   -1.508745
      5          6    90000001       -4.871517   -0.142879   -0.456915
      6          6    90000002       -5.509695   -0.445859   -1.816611
      7          6    90000002       -3.779939   -1.186901   -0.096252
      8          6    90000002       -2.552018   -1.330930   -1.013367
      9          6    90000002       -1.391236   -0.335825   -0.815905
     10          6    20001004       -0.824759   -0.322130    0.584521
     11          6    20001004        0.256808   -0.945716    1.022825
     12          6    90000002        1.192753   -1.827069    0.231005
     13          6    90000002        2.513425   -1.147209   -0.172953
     14          6    90000002        3.344355   -0.700908    1.037536
     15          6    90000002        4.775793   -0.163117    0.779833
     16          6    90000002        5.360948    0.268531    2.134353
     17          7    20001014        5.583027   -1.240529    0.223877
     18          6    20001002        6.848732   -1.018831   -0.236447
     19          6    20001001        7.408412   -2.113874   -1.115334
     20          8    20001024        7.475911   -0.032111    0.032201
     21          6    20001002        4.693980    0.970501   -0.267517
     22          8    20001024        4.665007    0.710925   -1.440423
     23          7    20001014        4.554066    2.232891    0.191586
     24          6    20001001        4.522435    3.346627   -0.734046
     25          7    20001014       -5.867935   -0.259684    0.617766
     26          6    20001002       -7.125353   -0.754265    0.433480
     27          6    20001001       -7.864114   -1.121964    1.703578
     28          8    20001024       -7.618350   -0.879025   -0.651659
     29          1    20001035       -4.371152    3.898484    0.475287
     30          1    20001035       -2.721748    3.367447    0.186947
     31          1    20001035       -3.337173    3.445053    1.833374
     32          1    20001029       -4.523423    1.470883    1.502938
     33          1    20001034       -4.792743   -0.342350   -2.616735
     34          1    20001034       -5.896386   -1.460604   -1.816027
     35          1    20001034       -6.321009    0.239890   -2.012684
     36          1    20001034       -4.286838   -2.149286   -0.086809
     37          1    20001034       -3.453324   -1.005300    0.922877
     38          1    20001034       -2.157887   -2.328845   -0.844712
     39          1    20001034       -2.860101   -1.300678   -2.053340
     40          1    20001034       -1.711048    0.664348   -1.078084
     41          1    20001034       -0.618643   -0.599588   -1.529602
     42          1    20001033       -1.374740    0.272417    1.295962
     43          1    20001033        0.513672   -0.815576    2.062462
     44          1    20001034        0.704530   -2.181092   -0.668868
     45          1    20001034        1.416953   -2.713566    0.822993
     46          1    20001034        3.071496   -1.848140   -0.787467
     47          1    20001034        2.298696   -0.298804   -0.809294
     48          1    20001034        3.446417   -1.532313    1.731715
     49          1    20001034        2.801653    0.076591    1.562245
     50          1    20001034        5.472763   -0.609593    2.759632
     51          1    20001034        4.694775    0.952112    2.650408
     52          1    20001034        6.331727    0.727404    2.021375
     53          1    20001029        5.076784   -1.937946   -0.272147
     54          1    20001034        8.485740   -2.047473   -1.119650
     55          1    20001034        7.046138   -1.963793   -2.127934
     56          1    20001034        7.101692   -3.100058   -0.784055
     57          1    20001029        4.820496    2.427674    1.127740
     58          1    20001035        4.284265    4.247037   -0.183173
     59          1    20001035        3.760573    3.178641   -1.481021
     60          1    20001035        5.474221    3.478087   -1.238600
     61          1    20001029       -5.498952   -0.321534    1.540574
     62          1    20001034       -8.925541   -1.121471    1.502716
     63          1    20001034       -7.645776   -0.439923    2.517641
     64          1    20001034       -7.570716   -2.120954    2.009747
 ---------------------------------------------------------------------

 SCF Done:  E(RHF) =  -1295.59754509     A.U. after   14 cycles

 The electronic state is 1-A.
 Alpha  occ. eigenvalues --  -20.52854 -20.52505 -20.52100 -20.51668 -15.59633
 Alpha  occ. eigenvalues --  -15.59158 -15.57991 -15.57579 -11.35819 -11.34501
 Alpha  occ. eigenvalues --  -11.34305 -11.33756 -11.28902 -11.28641 -11.26262
 Alpha  occ. eigenvalues --  -11.25083 -11.24172 -11.23477 -11.23464 -11.22611
 Alpha  occ. eigenvalues --  -11.22549 -11.22415 -11.22363 -11.22307 -11.22173
 Alpha  occ. eigenvalues --  -11.21888 -11.21599 -11.19515  -1.40267  -1.39646
 Alpha  occ. eigenvalues --   -1.39430  -1.38156  -1.25746  -1.23609  -1.23203
 Alpha  occ. eigenvalues --   -1.22702  -1.10763  -1.09161  -1.07211  -1.04245
 Alpha  occ. eigenvalues --   -1.01185  -0.99135  -0.98699  -0.96507  -0.95066
 Alpha  occ. eigenvalues --   -0.94501  -0.92035  -0.87370  -0.85855  -0.82733
 Alpha  occ. eigenvalues --   -0.81007  -0.79751  -0.79474  -0.77131  -0.76952
 Alpha  occ. eigenvalues --   -0.73601  -0.71967  -0.71271  -0.68340  -0.67925
 Alpha  occ. eigenvalues --   -0.66902  -0.65936  -0.64649  -0.64074  -0.63821
 Alpha  occ. eigenvalues --   -0.63109  -0.62679  -0.61875  -0.61482  -0.61239
 Alpha  occ. eigenvalues --   -0.61078  -0.60163  -0.59389  -0.58756  -0.58497
 Alpha  occ. eigenvalues --   -0.58047  -0.57723  -0.56458  -0.56263  -0.55946
 Alpha  occ. eigenvalues --   -0.55823  -0.55104  -0.54858  -0.54334  -0.53525
 Alpha  occ. eigenvalues --   -0.53144  -0.53055  -0.52841  -0.52199  -0.51729
 Alpha  occ. eigenvalues --   -0.51380  -0.50100  -0.49807  -0.49059  -0.48577
 Alpha  occ. eigenvalues --   -0.48123  -0.46990  -0.46457  -0.44537  -0.43626
 Alpha  occ. eigenvalues --   -0.41572  -0.41117  -0.40721  -0.39738  -0.38910
 Alpha  occ. eigenvalues --   -0.38362  -0.38156  -0.34612
 Alpha virt. eigenvalues --    0.17121   0.18030   0.19121   0.19594   0.19695
 Alpha virt. eigenvalues --    0.21529   0.21889   0.22886   0.23200   0.23885
 Alpha virt. eigenvalues --    0.25193   0.25854   0.26016   0.26642   0.27431

 Mulliken atomic charges:
              1
     1  C   -0.281285
     2  N   -0.793657
     3  C    0.818908
     4  O   -0.614399
     5  C    0.061849
     6  C   -0.454714
     7  C   -0.301518
     8  C   -0.316741
     9  C   -0.373863
    10  C   -0.176132
    11  C   -0.176312
    12  C   -0.353826
    13  C   -0.310831
    14  C   -0.328957
    15  C    0.091151
    16  C   -0.509513
    17  N   -0.787608
    18  C    0.767227
    19  C   -0.595720
    20  O   -0.613973
    21  C    0.820553
    22  O   -0.638953
    23  N   -0.806230
    24  C   -0.275515
    25  N   -0.831278
    26  C    0.752729
    27  C   -0.587559
    28  O   -0.587656
    29  H    0.179724
    30  H    0.207269
    31  H    0.167037
    32  H    0.375543
    33  H    0.186747
    34  H    0.182889
    35  H    0.204958
    36  H    0.175852
    37  H    0.152134
    38  H    0.163644
    39  H    0.183331
    40  H    0.207726
    41  H    0.175699
    42  H    0.172936
    43  H    0.168583
    44  H    0.178610
    45  H    0.160733
    46  H    0.151761
    47  H    0.199303
    48  H    0.173328
    49  H    0.184096
    50  H    0.183686
    51  H    0.147748
    52  H    0.226757
    53  H    0.389984
    54  H    0.211253
    55  H    0.209673
    56  H    0.176487
    57  H    0.395168
    58  H    0.164290
    59  H    0.199667
    60  H    0.185376
    61  H    0.370814
    62  H    0.220289
    63  H    0.173662
    64  H    0.197066
 Sum of Mulliken atomic charges =   0.00000

 Dipole moment (field-independent basis, Debye):
    X=             -1.6223    Y=             -1.4035    Z=              7.7047  Tot=              7.9977
 Quadrupole moment (field-independent basis, Debye-Ang):
   XX=           -212.5790   YY=           -156.4235   ZZ=           -171.5222
   XY=             -7.3569   XZ=            -26.7209   YZ=             10.1206

 Normal termination of Gaussian 09 at Thu Dec  5 16:36:03 2019.
