 Gaussian 09, Revision A.02,
 Gaussian 09:  EM64L-G09RevA.02 11-Jun-2009

 ---------------------------------
 #SP HF/6-31G* Geom=(ModRedundant)
 ---------------------------------

 ------------
 paramfit run
 ------------
 Symbolic Z-matrix:
 Charge =  0 Multiplicity = 1

                         Standard orientation:
 ---------------------------------------------------------------------
 Center     Atomic      Atomic             Coordinates (Angstroms)
 Number     Number       Type             X           Y           Z
 ---------------------------------------------------------------------
      1          6    20001001       -3.721673    3.214698    1.045898
      2          7    20001014       -4.161445    1.868268    0.744283
      3          6    20001002       -4.371918    1.498849   -0.540762
      4          8    20001024       -4.000653    2.159315   -1.471187
      5          6    90000001       -4.996542    0.109045   -0.759111
      6          6    90000002       -5.589474    0.028860   -2.169729
      7          6    90000002       -3.932274   -0.997634   -0.526307
      8          6    90000002       -2.674255   -1.022528   -1.413102
      9          6    90000002       -1.508439   -0.090676   -1.026888
     10          6    20001004       -0.992381   -0.301237    0.377258
     11          6    20001004        0.064575   -1.004140    0.750794
     12          6    90000002        1.016740   -1.771361   -0.134928
     13          6    90000002        2.359779   -1.062165   -0.385634
     14          6    90000002        3.152537   -0.821130    0.906012
     15          6    90000002        4.599170   -0.276664    0.781698
     16          6    90000002        5.140978   -0.067576    2.205136
     17          7    20001014        5.411713   -1.271246    0.094595
     18          6    20001002        6.695881   -1.005157   -0.283781
     19          6    20001001        7.272394   -1.963340   -1.300798
     20          8    20001024        7.325823   -0.082662    0.153618
     21          6    20001002        4.569707    1.004808   -0.081833
     22          8    20001024        4.579408    0.927832   -1.280960
     23          7    20001014        4.429877    2.184708    0.560247
     24          6    20001001        4.445939    3.427041   -0.184437
     25          7    20001014       -6.032268   -0.152087    0.251094
     26          6    20001002       -6.211552   -1.360968    0.856186
     27          6    20001001       -7.073830   -1.335173    2.101149
     28          8    20001024       -5.733720   -2.374174    0.430476
     29          1    20001035       -4.477334    3.950958    0.797204
     30          1    20001035       -2.825710    3.439971    0.486233
     31          1    20001035       -3.498679    3.276704    2.103623
     32          1    20001029       -4.697925    1.398177    1.435289
     33          1    20001034       -4.843023    0.240083   -2.920147
     34          1    20001034       -5.989115   -0.966823   -2.337479
     35          1    20001034       -6.384244    0.751265   -2.285476
     36          1    20001034       -4.451671   -1.940726   -0.681308
     37          1    20001034       -3.640054   -0.979700    0.518951
     38          1    20001034       -2.299446   -2.041553   -1.386183
     39          1    20001034       -2.944452   -0.828287   -2.445883
     40          1    20001034       -1.805602    0.943488   -1.143344
     41          1    20001034       -0.714265   -0.256569   -1.746333
     42          1    20001033       -1.559717    0.187771    1.152573
     43          1    20001033        0.285689   -1.038906    1.806096
     44          1    20001034        0.556512   -1.974903   -1.094213
     45          1    20001034        1.208023   -2.741775    0.321473
     46          1    20001034        2.930342   -1.671233   -1.081243
     47          1    20001034        2.179055   -0.122797   -0.891358
     48          1    20001034        3.218824   -1.750458    1.467696
     49          1    20001034        2.601547   -0.122982    1.525165
     50          1    20001034        5.218872   -1.032734    2.691944
     51          1    20001034        4.465696    0.541354    2.797233
     52          1    20001034        6.121074    0.385275    2.196276
     53          1    20001029        4.914535   -1.875396   -0.519023
     54          1    20001034        8.349958   -1.916834   -1.258883
     55          1    20001034        6.948625   -1.653876   -2.290005
     56          1    20001034        6.941187   -2.982733   -1.134894
     57          1    20001029        4.665101    2.229433    1.523564
     58          1    20001035        4.199924    4.237059    0.489558
     59          1    20001035        3.709213    3.389014   -0.973369
     60          1    20001035        5.416826    3.616471   -0.630810
     61          1    20001029       -6.353754    0.645808    0.752648
     62          1    20001034       -7.470416   -2.325414    2.271774
     63          1    20001034       -7.888250   -0.623851    2.021829
     64          1    20001034       -6.461520   -1.056568    2.952769
 ---------------------------------------------------------------------

 SCF Done:  E(RHF) =  -1295.58705298     A.U. after   14 cycles

 The electronic state is 1-A.
 Alpha  occ. eigenvalues --  -20.53542 -20.53223 -20.51868 -20.51424 -15.59943
 Alpha  occ. eigenvalues --  -15.59933 -15.57775 -15.57310 -11.36367 -11.35332
 Alpha  occ. eigenvalues --  -11.34071 -11.33509 -11.28874 -11.28343 -11.26829
 Alpha  occ. eigenvalues --  -11.24924 -11.24641 -11.23084 -11.22336 -11.21982
 Alpha  occ. eigenvalues --  -11.21920 -11.21626 -11.21594 -11.21416 -11.20935
 Alpha  occ. eigenvalues --  -11.20880 -11.20641 -11.20258  -1.41130  -1.40401
 Alpha  occ. eigenvalues --   -1.39191  -1.37919  -1.26321  -1.23703  -1.23339
 Alpha  occ. eigenvalues --   -1.22485  -1.10063  -1.08669  -1.06901  -1.03765
 Alpha  occ. eigenvalues --   -1.00793  -0.99291  -0.98548  -0.97167  -0.94792
 Alpha  occ. eigenvalues --   -0.94017  -0.91354  -0.87160  -0.85648  -0.82703
 Alpha  occ. eigenvalues --   -0.80986  -0.80244  -0.79282  -0.76803  -0.76714
 Alpha  occ. eigenvalues --   -0.74073  -0.71434  -0.70531  -0.68543  -0.67727
 Alpha  occ. eigenvalues --   -0.66567  -0.66117  -0.64755  -0.63972  -0.63726
 Alpha  occ. eigenvalues --   -0.63434  -0.62827  -0.61494  -0.61256  -0.61156
 Alpha  occ. eigenvalues --   -0.60903  -0.60621  -0.59138  -0.58530  -0.58453
 Alpha  occ. eigenvalues --   -0.57991  -0.57438  -0.56512  -0.56306  -0.56127
 Alpha  occ. eigenvalues --   -0.55977  -0.55147  -0.54667  -0.54472  -0.53661
 Alpha  occ. eigenvalues --   -0.53193  -0.52841  -0.52295  -0.52162  -0.51780
 Alpha  occ. eigenvalues --   -0.50852  -0.49937  -0.49568  -0.48664  -0.47989
 Alpha  occ. eigenvalues --   -0.47473  -0.46532  -0.45981  -0.43764  -0.43374
 Alpha  occ. eigenvalues --   -0.41315  -0.40881  -0.40566  -0.39789  -0.38675
 Alpha  occ. eigenvalues --   -0.38669  -0.38121  -0.33741
 Alpha virt. eigenvalues --    0.17679   0.17981   0.18493   0.18965   0.19848
 Alpha virt. eigenvalues --    0.21788   0.22200   0.23294   0.23482   0.24741
 Alpha virt. eigenvalues --    0.25643   0.25935   0.26650   0.27018   0.27130

 Mulliken atomic charges:
              1
     1  C   -0.284877
     2  N   -0.779491
     3  C    0.773623
     4  O   -0.613511
     5  C    0.106923
     6  C   -0.447307
     7  C   -0.363855
     8  C   -0.306994
     9  C   -0.372157
    10  C   -0.169280
    11  C   -0.177751
    12  C   -0.352768
    13  C   -0.310829
    14  C   -0.328489
    15  C    0.090943
    16  C   -0.509437
    17  N   -0.787533
    18  C    0.767239
    19  C   -0.595650
    20  O   -0.614652
    21  C    0.820764
    22  O   -0.639123
    23  N   -0.806161
    24  C   -0.275091
    25  N   -0.841705
    26  C    0.766308
    27  C   -0.591144
    28  O   -0.601866
    29  H    0.175212
    30  H    0.212995
    31  H    0.171788
    32  H    0.371747
    33  H    0.197639
    34  H    0.176379
    35  H    0.163817
    36  H    0.281589
    37  H    0.158163
    38  H    0.164372
    39  H    0.166182
    40  H    0.196842
    41  H    0.169693
    42  H    0.170309
    43  H    0.166197
    44  H    0.179694
    45  H    0.160631
    46  H    0.150286
    47  H    0.198086
    48  H    0.173596
    49  H    0.183867
    50  H    0.183833
    51  H    0.147512
    52  H    0.225827
    53  H    0.390426
    54  H    0.210570
    55  H    0.209434
    56  H    0.176802
    57  H    0.394948
    58  H    0.163425
    59  H    0.199462
    60  H    0.184850
    61  H    0.369924
    62  H    0.222903
    63  H    0.184052
    64  H    0.190818
 Sum of Mulliken atomic charges =   0.00000

 Dipole moment (field-independent basis, Debye):
    X=             -4.8731    Y=              0.9225    Z=              5.8474  Tot=              7.6675
 Quadrupole moment (field-independent basis, Debye-Ang):
   XX=           -175.8164   YY=           -168.5777   ZZ=           -167.5831
   XY=            -21.4302   XZ=            -17.0777   YZ=             15.6706

 Normal termination of Gaussian 09 at Thu Dec  5 16:21:00 2019.
