 Gaussian 09, Revision A.02,
 Gaussian 09:  EM64L-G09RevA.02 11-Jun-2009

 ---------------------------------
 #SP HF/6-31G* Geom=(ModRedundant)
 ---------------------------------

 ------------
 paramfit run
 ------------
 Symbolic Z-matrix:
 Charge =  0 Multiplicity = 1

                         Standard orientation:
 ---------------------------------------------------------------------
 Center     Atomic      Atomic             Coordinates (Angstroms)
 Number     Number       Type             X           Y           Z
 ---------------------------------------------------------------------
      1          6    20001001       -3.584048    3.260144    0.815308
      2          7    20001014       -4.018378    1.881432    0.727243
      3          6    20001002       -4.266153    1.327750   -0.482779
      4          8    20001024       -3.932491    1.848205   -1.511148
      5          6    90000001       -4.882056   -0.082925   -0.476006
      6          6    90000002       -5.519332   -0.371116   -1.839335
      7          6    90000002       -3.798615   -1.137283   -0.120918
      8          6    90000002       -2.569707   -1.282979   -1.036448
      9          6    90000002       -1.402426   -0.297570   -0.828937
     10          6    20001004       -0.838964   -0.298453    0.572772
     11          6    20001004        0.237238   -0.932915    1.008665
     12          6    90000002        1.168737   -1.814795    0.212204
     13          6    90000002        2.495027   -1.141183   -0.183734
     14          6    90000002        3.326384   -0.709902    1.031896
     15          6    90000002        4.762118   -0.180235    0.781370
     16          6    90000002        5.347285    0.237029    2.140384
     17          7    20001014        5.563015   -1.259046    0.218999
     18          6    20001002        6.831257   -1.042757   -0.236897
     19          6    20001001        7.385198   -2.135016   -1.122856
     20          8    20001024        7.464734   -0.062526    0.040581
     21          6    20001002        4.690560    0.961826   -0.257525
     22          8    20001024        4.662364    0.711347   -1.432426
     23          7    20001014        4.558474    2.221655    0.210839
     24          6    20001001        4.536689    3.342562   -0.706383
     25          7    20001014       -5.881640   -0.200867    0.595606
     26          6    20001002       -7.066789   -0.860822    0.455762
     27          6    20001001       -7.785204   -1.173811    1.751924
     28          8    20001024       -7.516684   -1.162189   -0.613309
     29          1    20001035       -4.355468    3.947653    0.487906
     30          1    20001035       -2.709189    3.407251    0.199106
     31          1    20001035       -3.327695    3.476707    1.844743
     32          1    20001029       -4.527005    1.513470    1.496780
     33          1    20001034       -4.799905   -0.266587   -2.637102
     34          1    20001034       -5.913118   -1.383097   -1.847283
     35          1    20001034       -6.325388    0.321775   -2.031951
     36          1    20001034       -4.312259   -2.096131   -0.119870
     37          1    20001034       -3.472991   -0.965700    0.900262
     38          1    20001034       -2.182948   -2.284884   -0.874518
     39          1    20001034       -2.875271   -1.242693   -2.076824
     40          1    20001034       -1.714646    0.706779   -1.084211
     41          1    20001034       -0.630122   -0.561337   -1.542946
     42          1    20001033       -1.386341    0.294536    1.287513
     43          1    20001033        0.492707   -0.812456    2.049811
     44          1    20001034        0.680039   -2.158561   -0.691381
     45          1    20001034        1.385416   -2.707301    0.797932
     46          1    20001034        3.049534   -1.841341   -0.802342
     47          1    20001034        2.287651   -0.286498   -0.814083
     48          1    20001034        3.421087   -1.547234    1.719967
     49          1    20001034        2.787980    0.067392    1.561315
     50          1    20001034        5.451565   -0.646567    2.759224
     51          1    20001034        4.684775    0.921341    2.660172
     52          1    20001034        6.321500    0.689919    2.032986
     53          1    20001029        5.052999   -1.949117   -0.283393
     54          1    20001034        8.462971   -2.076148   -1.124343
     55          1    20001034        7.026224   -1.974735   -2.135068
     56          1    20001034        7.070848   -3.121504   -0.799730
     57          1    20001029        4.824191    2.407471    1.149017
     58          1    20001035        4.303613    4.240425   -0.149211
     59          1    20001035        3.775323    3.185587   -1.456254
     60          1    20001035        5.490486    3.471154   -1.207871
     61          1    20001029       -5.528964   -0.116354    1.522981
     62          1    20001034       -8.834319   -1.323459    1.542312
     63          1    20001034       -7.668085   -0.385439    2.486977
     64          1    20001034       -7.382081   -2.090518    2.170183
 ---------------------------------------------------------------------

 SCF Done:  E(RHF) =  -1295.59654887     A.U. after   14 cycles

 The electronic state is 1-A.
 Alpha  occ. eigenvalues --  -20.53028 -20.52573 -20.52095 -20.51667 -15.59653
 Alpha  occ. eigenvalues --  -15.59446 -15.57993 -15.57573 -11.35874 -11.34725
 Alpha  occ. eigenvalues --  -11.34300 -11.33754 -11.28909 -11.28636 -11.26442
 Alpha  occ. eigenvalues --  -11.25089 -11.24194 -11.23468 -11.23280 -11.22588
 Alpha  occ. eigenvalues --  -11.22543 -11.22400 -11.22342 -11.22200 -11.22155
 Alpha  occ. eigenvalues --  -11.21885 -11.21568 -11.19433  -1.40341  -1.39788
 Alpha  occ. eigenvalues --   -1.39427  -1.38153  -1.25883  -1.23603  -1.23361
 Alpha  occ. eigenvalues --   -1.22703  -1.10731  -1.09122  -1.07197  -1.04231
 Alpha  occ. eigenvalues --   -1.01169  -0.99146  -0.98705  -0.96684  -0.95053
 Alpha  occ. eigenvalues --   -0.94464  -0.91966  -0.87375  -0.85870  -0.82734
 Alpha  occ. eigenvalues --   -0.81075  -0.79975  -0.79505  -0.77021  -0.76950
 Alpha  occ. eigenvalues --   -0.73852  -0.71935  -0.71245  -0.68202  -0.67793
 Alpha  occ. eigenvalues --   -0.66916  -0.66062  -0.64709  -0.64230  -0.63899
 Alpha  occ. eigenvalues --   -0.63181  -0.62705  -0.61869  -0.61478  -0.61249
 Alpha  occ. eigenvalues --   -0.61081  -0.60193  -0.59391  -0.58748  -0.58575
 Alpha  occ. eigenvalues --   -0.57973  -0.57711  -0.56486  -0.56313  -0.56046
 Alpha  occ. eigenvalues --   -0.55991  -0.55119  -0.54856  -0.54320  -0.53548
 Alpha  occ. eigenvalues --   -0.53138  -0.53096  -0.52824  -0.52232  -0.51600
 Alpha  occ. eigenvalues --   -0.51386  -0.50076  -0.49798  -0.48975  -0.48544
 Alpha  occ. eigenvalues --   -0.48062  -0.47082  -0.46442  -0.44492  -0.43515
 Alpha  occ. eigenvalues --   -0.41569  -0.41112  -0.40822  -0.39967  -0.38907
 Alpha  occ. eigenvalues --   -0.38361  -0.38171  -0.34587
 Alpha virt. eigenvalues --    0.17115   0.17947   0.18897   0.19598   0.19608
 Alpha virt. eigenvalues --    0.21533   0.21893   0.22902   0.23201   0.23896
 Alpha virt. eigenvalues --    0.25128   0.25843   0.26087   0.26617   0.27423

 Mulliken atomic charges:
              1
     1  C   -0.281784
     2  N   -0.794384
     3  C    0.819328
     4  O   -0.613515
     5  C    0.055031
     6  C   -0.458047
     7  C   -0.295337
     8  C   -0.317442
     9  C   -0.373804
    10  C   -0.175474
    11  C   -0.176291
    12  C   -0.353843
    13  C   -0.310856
    14  C   -0.328925
    15  C    0.091151
    16  C   -0.509503
    17  N   -0.787601
    18  C    0.767218
    19  C   -0.595720
    20  O   -0.614017
    21  C    0.820554
    22  O   -0.638927
    23  N   -0.806256
    24  C   -0.275483
    25  N   -0.827241
    26  C    0.756292
    27  C   -0.588271
    28  O   -0.589880
    29  H    0.180163
    30  H    0.208610
    31  H    0.167802
    32  H    0.372813
    33  H    0.185462
    34  H    0.204747
    35  H    0.187998
    36  H    0.177199
    37  H    0.151248
    38  H    0.163553
    39  H    0.182632
    40  H    0.206529
    41  H    0.175611
    42  H    0.172150
    43  H    0.168419
    44  H    0.178848
    45  H    0.160807
    46  H    0.151779
    47  H    0.199190
    48  H    0.173379
    49  H    0.183985
    50  H    0.183724
    51  H    0.147677
    52  H    0.226727
    53  H    0.390028
    54  H    0.211231
    55  H    0.209676
    56  H    0.176534
    57  H    0.395152
    58  H    0.164194
    59  H    0.199621
    60  H    0.185398
    61  H    0.368376
    62  H    0.220521
    63  H    0.174265
    64  H    0.196980
 Sum of Mulliken atomic charges =   0.00000

 Dipole moment (field-independent basis, Debye):
    X=             -1.7118    Y=             -0.8786    Z=              7.6935  Tot=              7.9304
 Quadrupole moment (field-independent basis, Debye-Ang):
   XX=           -211.4590   YY=           -157.4820   ZZ=           -171.1748
   XY=            -10.8955   XZ=            -26.5361   YZ=             10.2192

 Normal termination of Gaussian 09 at Thu Dec  5 16:41:13 2019.
