 Gaussian 09, Revision A.02,
 Gaussian 09:  EM64L-G09RevA.02 11-Jun-2009

 ---------------------------------
 #SP HF/6-31G* Geom=(ModRedundant)
 ---------------------------------

 ------------
 paramfit run
 ------------
 Symbolic Z-matrix:
 Charge =  0 Multiplicity = 1

                         Standard orientation:
 ---------------------------------------------------------------------
 Center     Atomic      Atomic             Coordinates (Angstroms)
 Number     Number       Type             X           Y           Z
 ---------------------------------------------------------------------
      1          6    20001001       -3.629997    3.313275    0.940822
      2          7    20001014       -4.083445    1.953577    0.733818
      3          6    20001002       -4.315195    1.503008   -0.521327
      4          8    20001024       -3.952970    2.098603   -1.497957
      5          6    90000001       -4.952558    0.106901   -0.639818
      6          6    90000002       -5.566544   -0.060216   -2.033710
      7          6    90000002       -3.892706   -0.990628   -0.350429
      8          6    90000002       -2.647958   -1.083059   -1.251370
      9          6    90000002       -1.470200   -0.137256   -0.943179
     10          6    20001004       -0.935189   -0.260077    0.464285
     11          6    20001004        0.122204   -0.945484    0.867887
     12          6    90000002        1.056007   -1.776170    0.020700
     13          6    90000002        2.400131   -1.095375   -0.294602
     14          6    90000002        3.213296   -0.777065    0.967283
     15          6    90000002        4.661702   -0.253239    0.787365
     16          6    90000002        5.225651    0.043739    2.186370
     17          7    20001014        5.457222   -1.296777    0.155141
     18          6    20001002        6.737548   -1.065980   -0.257844
     19          6    20001001        7.292509   -2.092803   -1.218291
     20          8    20001024        7.380183   -0.121969    0.109586
     21          6    20001002        4.628532    0.969532   -0.157333
     22          8    20001024        4.620208    0.814634   -1.348914
     23          7    20001014        4.506266    2.189767    0.408405
     24          6    20001001        4.520077    3.380857   -0.415802
     25          7    20001014       -5.975225   -0.079801    0.399762
     26          6    20001002       -6.569187   -1.277076    0.670714
     27          6    20001001       -7.316197   -1.340923    1.986776
     28          8    20001024       -6.516809   -2.209375   -0.080429
     29          1    20001035       -4.384082    4.037718    0.655363
     30          1    20001035       -2.740752    3.494604    0.355087
     31          1    20001035       -3.391174    3.442204    1.989008
     32          1    20001029       -4.613036    1.533672    1.461484
     33          1    20001034       -4.829671    0.095860   -2.806750
     34          1    20001034       -5.975482   -1.061528   -2.130570
     35          1    20001034       -6.357890    0.659359   -2.185065
     36          1    20001034       -4.420835   -1.937690   -0.436305
     37          1    20001034       -3.585154   -0.907031    0.687215
     38          1    20001034       -2.279871   -2.101091   -1.163395
     39          1    20001034       -2.931837   -0.954297   -2.290700
     40          1    20001034       -1.761853    0.889447   -1.122574
     41          1    20001034       -0.687774   -0.355846   -1.661414
     42          1    20001033       -1.487753    0.282783    1.214012
     43          1    20001033        0.358441   -0.913261    1.919987
     44          1    20001034        0.580436   -2.038060   -0.916696
     45          1    20001034        1.247194   -2.716311    0.536623
     46          1    20001034        2.956250   -1.752876   -0.957022
     47          1    20001034        2.218567   -0.189505   -0.857864
     48          1    20001034        3.281324   -1.668377    1.587340
     49          1    20001034        2.676249   -0.035803    1.547336
     50          1    20001034        5.303944   -0.888287    2.733888
     51          1    20001034        4.563314    0.695194    2.746993
     52          1    20001034        6.208629    0.487329    2.134198
     53          1    20001029        4.946970   -1.935637   -0.410732
     54          1    20001034        8.370866   -2.052148   -1.194697
     55          1    20001034        6.956500   -1.845811   -2.220896
     56          1    20001034        6.956697   -3.096605   -0.981658
     57          1    20001029        4.755820    2.295216    1.363347
     58          1    20001035        4.289540    4.234917    0.207380
     59          1    20001035        3.771676    3.297384   -1.190110
     60          1    20001035        5.485640    3.533202   -0.887218
     61          1    20001029       -5.959808    0.584413    1.141468
     62          1    20001034       -8.045813   -2.135935    1.935909
     63          1    20001034       -7.810607   -0.405605    2.224031
     64          1    20001034       -6.614853   -1.565881    2.783841
 ---------------------------------------------------------------------

 SCF Done:  E(RHF) =  -1295.60325819     A.U. after   14 cycles

 The electronic state is 1-A.
 Alpha  occ. eigenvalues --  -20.53732 -20.53329 -20.51997 -20.51572 -15.60350
 Alpha  occ. eigenvalues --  -15.59699 -15.57915 -15.57458 -11.36046 -11.35619
 Alpha  occ. eigenvalues --  -11.34200 -11.33659 -11.28971 -11.28513 -11.27033
 Alpha  occ. eigenvalues --  -11.25043 -11.24396 -11.23301 -11.22448 -11.22304
 Alpha  occ. eigenvalues --  -11.22188 -11.22014 -11.21833 -11.21778 -11.21746
 Alpha  occ. eigenvalues --  -11.21527 -11.21164 -11.20236  -1.40848  -1.40281
 Alpha  occ. eigenvalues --   -1.39330  -1.38057  -1.26477  -1.23782  -1.23490
 Alpha  occ. eigenvalues --   -1.22624  -1.10404  -1.08829  -1.07038  -1.04025
 Alpha  occ. eigenvalues --   -1.00956  -0.99278  -0.98683  -0.97354  -0.94945
 Alpha  occ. eigenvalues --   -0.94245  -0.91616  -0.87377  -0.85830  -0.82781
 Alpha  occ. eigenvalues --   -0.81564  -0.80401  -0.79426  -0.76857  -0.76289
 Alpha  occ. eigenvalues --   -0.74388  -0.71656  -0.70905  -0.67942  -0.67781
 Alpha  occ. eigenvalues --   -0.66715  -0.65994  -0.65132  -0.64217  -0.63848
 Alpha  occ. eigenvalues --   -0.63319  -0.63141  -0.61703  -0.61413  -0.61335
 Alpha  occ. eigenvalues --   -0.61043  -0.60331  -0.59322  -0.58759  -0.58625
 Alpha  occ. eigenvalues --   -0.57727  -0.57661  -0.56876  -0.56593  -0.56292
 Alpha  occ. eigenvalues --   -0.56082  -0.55233  -0.54792  -0.54621  -0.53835
 Alpha  occ. eigenvalues --   -0.53566  -0.53012  -0.52422  -0.51994  -0.51847
 Alpha  occ. eigenvalues --   -0.51095  -0.49958  -0.49673  -0.48685  -0.47768
 Alpha  occ. eigenvalues --   -0.47484  -0.46773  -0.46229  -0.44087  -0.43717
 Alpha  occ. eigenvalues --   -0.41467  -0.41418  -0.41013  -0.40582  -0.39058
 Alpha  occ. eigenvalues --   -0.38812  -0.38270  -0.34230
 Alpha virt. eigenvalues --    0.17355   0.17862   0.18146   0.19345   0.19702
 Alpha virt. eigenvalues --    0.21640   0.22022   0.23083   0.23315   0.24473
 Alpha virt. eigenvalues --    0.25153   0.26012   0.26629   0.26780   0.27351

 Mulliken atomic charges:
              1
     1  C   -0.285431
     2  N   -0.789055
     3  C    0.793647
     4  O   -0.612346
     5  C    0.093634
     6  C   -0.471738
     7  C   -0.342234
     8  C   -0.314374
     9  C   -0.372749
    10  C   -0.172198
    11  C   -0.176838
    12  C   -0.353514
    13  C   -0.310901
    14  C   -0.328698
    15  C    0.091070
    16  C   -0.509462
    17  N   -0.787555
    18  C    0.767203
    19  C   -0.595695
    20  O   -0.614364
    21  C    0.820633
    22  O   -0.638958
    23  N   -0.806280
    24  C   -0.275254
    25  N   -0.830399
    26  C    0.761360
    27  C   -0.592155
    28  O   -0.597838
    29  H    0.179251
    30  H    0.213639
    31  H    0.171844
    32  H    0.370613
    33  H    0.192152
    34  H    0.210624
    35  H    0.167959
    36  H    0.240765
    37  H    0.153836
    38  H    0.164923
    39  H    0.174924
    40  H    0.199886
    41  H    0.173294
    42  H    0.170660
    43  H    0.167262
    44  H    0.179721
    45  H    0.160994
    46  H    0.151303
    47  H    0.198442
    48  H    0.173611
    49  H    0.183687
    50  H    0.183871
    51  H    0.147457
    52  H    0.226319
    53  H    0.390290
    54  H    0.210931
    55  H    0.209580
    56  H    0.176770
    57  H    0.395051
    58  H    0.163688
    59  H    0.199416
    60  H    0.185246
    61  H    0.366169
    62  H    0.221744
    63  H    0.180036
    64  H    0.194532
 Sum of Mulliken atomic charges =   0.00000

 Dipole moment (field-independent basis, Debye):
    X=             -3.2109    Y=              0.9908    Z=              6.8228  Tot=              7.6054
 Quadrupole moment (field-independent basis, Debye-Ang):
   XX=           -193.2585   YY=           -165.3001   ZZ=           -168.3646
   XY=            -22.3598   XZ=            -21.4829   YZ=             12.8389

 Normal termination of Gaussian 09 at Thu Dec  5 16:05:03 2019.
