 Gaussian 09, Revision A.02,
 Gaussian 09:  EM64L-G09RevA.02 11-Jun-2009

 ---------------------------------
 #SP HF/6-31G* Geom=(ModRedundant)
 ---------------------------------

 ------------
 paramfit run
 ------------
 Symbolic Z-matrix:
 Charge =  0 Multiplicity = 1

                         Standard orientation:
 ---------------------------------------------------------------------
 Center     Atomic      Atomic             Coordinates (Angstroms)
 Number     Number       Type             X           Y           Z
 ---------------------------------------------------------------------
      1          6    20001001       -3.791531    3.119169    1.075629
      2          7    20001014       -4.214669    1.778375    0.728539
      3          6    20001002       -4.410292    1.446964   -0.569155
      4          8    20001024       -4.037981    2.139764   -1.475333
      5          6    90000001       -5.018526    0.058358   -0.836006
      6          6    90000002       -5.598511    0.016053   -2.253635
      7          6    90000002       -3.944825   -1.044175   -0.628188
      8          6    90000002       -2.679080   -1.028736   -1.504136
      9          6    90000002       -1.526371   -0.097567   -1.078902
     10          6    20001004       -1.020172   -0.346431    0.322564
     11          6    20001004        0.040811   -1.049854    0.683492
     12          6    90000002        1.008448   -1.779479   -0.217106
     13          6    90000002        2.346126   -1.049252   -0.433791
     14          6    90000002        3.125261   -0.840458    0.871685
     15          6    90000002        4.567158   -0.277752    0.777141
     16          6    90000002        5.094572   -0.107530    2.211124
     17          7    20001014        5.395854   -1.242206    0.066773
     18          6    20001002        6.680370   -0.951478   -0.291771
     19          6    20001001        7.275500   -1.871691   -1.332846
     20          8    20001024        7.296913   -0.036686    0.179580
     21          6    20001002        4.531741    1.029579   -0.046484
     22          8    20001024        4.552494    0.990016   -1.247288
     23          7    20001014        4.374153    2.187471    0.630594
     24          6    20001001        4.383649    3.452451   -0.075055
     25          7    20001014       -6.060076   -0.244536    0.156395
     26          6    20001002       -6.010059   -1.311292    1.004454
     27          6    20001001       -6.975020   -1.251497    2.170385
     28          8    20001024       -5.267047   -2.236415    0.836470
     29          1    20001035       -4.552661    3.855103    0.843184
     30          1    20001035       -2.893209    3.370802    0.531183
     31          1    20001035       -3.578244    3.150523    2.136703
     32          1    20001029       -4.752115    1.281617    1.399858
     33          1    20001034       -4.847910    0.258057   -2.990497
     34          1    20001034       -5.986317   -0.977935   -2.455702
     35          1    20001034       -6.399739    0.733612   -2.353979
     36          1    20001034       -4.453034   -1.987211   -0.816945
     37          1    20001034       -3.661755   -1.055779    0.419675
     38          1    20001034       -2.293929   -2.044253   -1.505493
     39          1    20001034       -2.942445   -0.805234   -2.532757
     40          1    20001034       -1.833276    0.936651   -1.165879
     41          1    20001034       -0.724392   -0.232957   -1.796073
     42          1    20001033       -1.599175    0.112463    1.107601
     43          1    20001033        0.253245   -1.115162    1.739128
     44          1    20001034        0.558581   -1.957759   -1.186282
     45          1    20001034        1.205912   -2.761621    0.210676
     46          1    20001034        2.928923   -1.630586   -1.142856
     47          1    20001034        2.159964   -0.096498   -0.911739
     48          1    20001034        3.196414   -1.786077    1.404861
     49          1    20001034        2.561761   -0.167515    1.507269
     50          1    20001034        5.178344   -1.086515    2.668454
     51          1    20001034        4.407950    0.475823    2.815798
     52          1    20001034        6.069940    0.355291    2.224996
     53          1    20001029        4.910255   -1.832000   -0.569661
     54          1    20001034        8.352123   -1.815587   -1.279955
     55          1    20001034        6.956995   -1.534926   -2.314818
     56          1    20001034        6.953515   -2.899053   -1.201561
     57          1    20001029        4.600655    2.204613    1.596882
     58          1    20001035        4.123462    4.238591    0.621514
     59          1    20001035        3.654129    3.431498   -0.871289
     60          1    20001035        5.356291    3.665498   -0.506715
     61          1    20001029       -6.608952    0.531435    0.453295
     62          1    20001034       -7.142758   -2.253875    2.536548
     63          1    20001034       -7.921618   -0.798934    1.897095
     64          1    20001034       -6.534290   -0.661520    2.967558
 ---------------------------------------------------------------------

 SCF Done:  E(RHF) =  -1295.57796302     A.U. after   14 cycles

 The electronic state is 1-A.
 Alpha  occ. eigenvalues --  -20.53316 -20.52747 -20.51806 -20.51351 -15.60022
 Alpha  occ. eigenvalues --  -15.59565 -15.57704 -15.57238 -11.36322 -11.34961
 Alpha  occ. eigenvalues --  -11.34009 -11.33436 -11.28878 -11.28260 -11.26612
 Alpha  occ. eigenvalues --  -11.24862 -11.24676 -11.22979 -11.22284 -11.21850
 Alpha  occ. eigenvalues --  -11.21793 -11.21546 -11.21395 -11.21219 -11.21184
 Alpha  occ. eigenvalues --  -11.20686 -11.20533 -11.20379  -1.41122  -1.40189
 Alpha  occ. eigenvalues --   -1.39124  -1.37851  -1.26136  -1.23516  -1.23266
 Alpha  occ. eigenvalues --   -1.22414  -1.09945  -1.08681  -1.06833  -1.03662
 Alpha  occ. eigenvalues --   -1.00730  -0.99273  -0.98483  -0.96950  -0.94726
 Alpha  occ. eigenvalues --   -0.93960  -0.91297  -0.87006  -0.85537  -0.82629
 Alpha  occ. eigenvalues --   -0.80678  -0.80086  -0.79212  -0.77194  -0.76642
 Alpha  occ. eigenvalues --   -0.73687  -0.71344  -0.70397  -0.68474  -0.67636
 Alpha  occ. eigenvalues --   -0.66618  -0.66060  -0.64511  -0.63910  -0.63779
 Alpha  occ. eigenvalues --   -0.63215  -0.62516  -0.61402  -0.61191  -0.61065
 Alpha  occ. eigenvalues --   -0.60850  -0.60498  -0.59090  -0.58597  -0.58377
 Alpha  occ. eigenvalues --   -0.57915  -0.57214  -0.56221  -0.56069  -0.55986
 Alpha  occ. eigenvalues --   -0.55913  -0.55076  -0.54608  -0.54395  -0.53552
 Alpha  occ. eigenvalues --   -0.53040  -0.52750  -0.52497  -0.52111  -0.51718
 Alpha  occ. eigenvalues --   -0.50785  -0.49963  -0.49513  -0.48775  -0.47929
 Alpha  occ. eigenvalues --   -0.47446  -0.46218  -0.45885  -0.43907  -0.43519
 Alpha  occ. eigenvalues --   -0.41241  -0.40818  -0.40199  -0.39032  -0.38599
 Alpha  occ. eigenvalues --   -0.38507  -0.38047  -0.33545
 Alpha virt. eigenvalues --    0.17484   0.17787   0.18480   0.19267   0.19918
 Alpha virt. eigenvalues --    0.21859   0.22283   0.23281   0.23572   0.24641
 Alpha virt. eigenvalues --    0.25663   0.25957   0.26299   0.27055   0.27649

 Mulliken atomic charges:
              1
     1  C   -0.283641
     2  N   -0.778335
     3  C    0.772612
     4  O   -0.614740
     5  C    0.092238
     6  C   -0.443986
     7  C   -0.328783
     8  C   -0.303599
     9  C   -0.372699
    10  C   -0.167847
    11  C   -0.177836
    12  C   -0.352630
    13  C   -0.310755
    14  C   -0.328425
    15  C    0.090843
    16  C   -0.509450
    17  N   -0.787508
    18  C    0.767271
    19  C   -0.595628
    20  O   -0.614756
    21  C    0.820815
    22  O   -0.639282
    23  N   -0.806073
    24  C   -0.275020
    25  N   -0.832968
    26  C    0.742815
    27  C   -0.586609
    28  O   -0.588818
    29  H    0.173100
    30  H    0.211721
    31  H    0.171174
    32  H    0.375811
    33  H    0.201331
    34  H    0.169405
    35  H    0.159317
    36  H    0.233601
    37  H    0.186345
    38  H    0.165075
    39  H    0.161590
    40  H    0.197004
    41  H    0.169520
    42  H    0.171434
    43  H    0.166592
    44  H    0.179025
    45  H    0.160697
    46  H    0.149741
    47  H    0.197794
    48  H    0.173694
    49  H    0.184140
    50  H    0.183847
    51  H    0.147670
    52  H    0.225581
    53  H    0.390437
    54  H    0.210412
    55  H    0.209325
    56  H    0.176785
    57  H    0.394946
    58  H    0.163387
    59  H    0.199448
    60  H    0.184636
    61  H    0.373361
    62  H    0.223002
    63  H    0.185000
    64  H    0.186843
 Sum of Mulliken atomic charges =   0.00000

 Dipole moment (field-independent basis, Debye):
    X=             -5.7196    Y=              0.5734    Z=              5.0794  Tot=              7.6709
 Quadrupole moment (field-independent basis, Debye-Ang):
   XX=           -166.6219   YY=           -168.9360   ZZ=           -168.2939
   XY=            -19.2528   XZ=            -13.9298   YZ=             17.2285

 Normal termination of Gaussian 09 at Thu Dec  5 16:31:46 2019.
