 Gaussian 09, Revision A.02,
 Gaussian 09:  EM64L-G09RevA.02 11-Jun-2009

 ---------------------------------
 #SP HF/6-31G* Geom=(ModRedundant)
 ---------------------------------

 ------------
 paramfit run
 ------------
 Symbolic Z-matrix:
 Charge =  0 Multiplicity = 1

                         Standard orientation:
 ---------------------------------------------------------------------
 Center     Atomic      Atomic             Coordinates (Angstroms)
 Number     Number       Type             X           Y           Z
 ---------------------------------------------------------------------
      1          6    20001001       -3.687979    3.256257    1.014320
      2          7    20001014       -4.134119    1.905477    0.743030
      3          6    20001002       -4.352071    1.510050   -0.532996
      4          8    20001024       -3.982827    2.149503   -1.478779
      5          6    90000001       -4.982822    0.118345   -0.719264
      6          6    90000002       -5.582765    0.010899   -2.125097
      7          6    90000002       -3.921523   -0.987222   -0.468334
      8          6    90000002       -2.667846   -1.035403   -1.360304
      9          6    90000002       -1.496792   -0.100072   -0.999160
     10          6    20001004       -0.974819   -0.283153    0.406651
     11          6    20001004        0.081320   -0.982064    0.789861
     12          6    90000002        1.026431   -1.771229   -0.084060
     13          6    90000002        2.370851   -1.072497   -0.355857
     14          6    90000002        3.170638   -0.807479    0.926726
     15          6    90000002        4.618649   -0.271186    0.784255
     16          6    90000002        5.168002   -0.034407    2.200445
     17          7    20001014        5.424253   -1.282979    0.114324
     18          6    20001002        6.707569   -1.029704   -0.275561
     19          6    20001001        7.275708   -2.011119   -1.274984
     20          8    20001024        7.342969   -0.100640    0.139467
     21          6    20001002        4.589769    0.992041   -0.105772
     22          8    20001024        4.593469    0.889958   -1.303057
     23          7    20001014        4.457331    2.185634    0.512111
     24          6    20001001        4.474398    3.412046   -0.258490
     25          7    20001014       -6.014670   -0.117692    0.301034
     26          6    20001002       -6.327271   -1.351776    0.789899
     27          6    20001001       -7.144606   -1.350024    2.065077
     28          8    20001024       -5.992278   -2.366144    0.246780
     29          1    20001035       -4.442111    3.989993    0.753812
     30          1    20001035       -2.793874    3.466395    0.445864
     31          1    20001035       -3.459717    3.339537    2.069457
     32          1    20001029       -4.669018    1.451970    1.446237
     33          1    20001034       -4.839130    0.203564   -2.883267
     34          1    20001034       -5.986850   -0.986563   -2.270086
     35          1    20001034       -6.375423    0.733714   -2.252216
     36          1    20001034       -4.445108   -1.931387   -0.601116
     37          1    20001034       -3.624258   -0.948525    0.574937
     38          1    20001034       -2.296654   -2.055046   -1.313813
     39          1    20001034       -2.942250   -0.861794   -2.395648
     40          1    20001034       -1.790711    0.932541   -1.135849
     41          1    20001034       -0.706672   -0.283971   -1.718691
     42          1    20001033       -1.536655    0.224102    1.174210
     43          1    20001033        0.307336   -0.995577    1.844610
     44          1    20001034        0.560890   -1.993060   -1.036702
     45          1    20001034        1.216327   -2.732595    0.391659
     46          1    20001034        2.935852   -1.698129   -1.041229
     47          1    20001034        2.191164   -0.143241   -0.880286
     48          1    20001034        3.236194   -1.725096    1.507429
     49          1    20001034        2.625171   -0.094460    1.533703
     50          1    20001034        5.244676   -0.989456    2.706985
     51          1    20001034        4.497789    0.589317    2.782823
     52          1    20001034        6.149698    0.414464    2.177508
     53          1    20001029        4.921942   -1.897958   -0.484171
     54          1    20001034        8.353622   -1.967806   -1.239108
     55          1    20001034        6.948363   -1.721201   -2.268925
     56          1    20001034        6.941559   -3.025563   -1.086220
     57          1    20001029        4.697308    2.249617    1.473166
     58          1    20001035        4.234572    4.236909    0.399543
     59          1    20001035        3.733784    3.360297   -1.042988
     60          1    20001035        5.443833    3.588438   -0.713281
     61          1    20001029       -6.219508    0.657223    0.891876
     62          1    20001034       -7.657354   -2.296824    2.152452
     63          1    20001034       -7.865279   -0.540348    2.089703
     64          1    20001034       -6.478786   -1.237801    2.914718
 ---------------------------------------------------------------------

 SCF Done:  E(RHF) =  -1295.59444315     A.U. after   14 cycles

 The electronic state is 1-A.
 Alpha  occ. eigenvalues --  -20.53652 -20.53383 -20.51910 -20.51473 -15.60136
 Alpha  occ. eigenvalues --  -15.59855 -15.57822 -15.57358 -11.36274 -11.35495
 Alpha  occ. eigenvalues --  -11.34113 -11.33559 -11.28908 -11.28399 -11.26932
 Alpha  occ. eigenvalues --  -11.24965 -11.24569 -11.23155 -11.22372 -11.22083
 Alpha  occ. eigenvalues --  -11.22008 -11.21729 -11.21677 -11.21551 -11.21083
 Alpha  occ. eigenvalues --  -11.20797 -11.20773 -11.20611  -1.41026  -1.40460
 Alpha  occ. eigenvalues --   -1.39237  -1.37965  -1.26405  -1.23765  -1.23388
 Alpha  occ. eigenvalues --   -1.22532  -1.10166  -1.08700  -1.06945  -1.03850
 Alpha  occ. eigenvalues --   -1.00835  -0.99302  -0.98595  -0.97273  -0.94842
 Alpha  occ. eigenvalues --   -0.94085  -0.91428  -0.87252  -0.85712  -0.82737
 Alpha  occ. eigenvalues --   -0.81191  -0.80311  -0.79330  -0.76762  -0.76554
 Alpha  occ. eigenvalues --   -0.74238  -0.71498  -0.70636  -0.68348  -0.67796
 Alpha  occ. eigenvalues --   -0.66565  -0.66107  -0.64904  -0.64040  -0.63660
 Alpha  occ. eigenvalues --   -0.63522  -0.62970  -0.61566  -0.61320  -0.61217
 Alpha  occ. eigenvalues --   -0.60944  -0.60566  -0.59198  -0.58575  -0.58518
 Alpha  occ. eigenvalues --   -0.57952  -0.57541  -0.56668  -0.56439  -0.56187
 Alpha  occ. eigenvalues --   -0.56017  -0.55194  -0.54713  -0.54535  -0.53749
 Alpha  occ. eigenvalues --   -0.53336  -0.52898  -0.52291  -0.52206  -0.51796
 Alpha  occ. eigenvalues --   -0.50944  -0.49941  -0.49604  -0.48595  -0.47788
 Alpha  occ. eigenvalues --   -0.47421  -0.46700  -0.46062  -0.43841  -0.43526
 Alpha  occ. eigenvalues --   -0.41364  -0.40925  -0.40797  -0.40101  -0.39010
 Alpha  occ. eigenvalues --   -0.38717  -0.38171  -0.33903
 Alpha virt. eigenvalues --    0.17725   0.17842   0.18301   0.19145   0.19800
 Alpha virt. eigenvalues --    0.21739   0.22141   0.23241   0.23426   0.24706
 Alpha virt. eigenvalues --    0.25459   0.26103   0.26710   0.26779   0.27223

 Mulliken atomic charges:
              1
     1  C   -0.285430
     2  N   -0.781835
     3  C    0.778541
     4  O   -0.612933
     5  C    0.107344
     6  C   -0.453469
     7  C   -0.368070
     8  C   -0.309180
     9  C   -0.372036
    10  C   -0.170202
    11  C   -0.177518
    12  C   -0.352994
    13  C   -0.310854
    14  C   -0.328551
    15  C    0.090989
    16  C   -0.509442
    17  N   -0.787541
    18  C    0.767224
    19  C   -0.595665
    20  O   -0.614566
    21  C    0.820722
    22  O   -0.639059
    23  N   -0.806207
    24  C   -0.275140
    25  N   -0.840541
    26  C    0.769694
    27  C   -0.592096
    28  O   -0.604046
    29  H    0.176619
    30  H    0.213471
    31  H    0.172074
    32  H    0.370733
    33  H    0.195958
    34  H    0.184782
    35  H    0.165819
    36  H    0.280608
    37  H    0.153947
    38  H    0.164543
    39  H    0.169059
    40  H    0.197503
    41  H    0.170720
    42  H    0.170343
    43  H    0.166429
    44  H    0.179800
    45  H    0.160723
    46  H    0.150633
    47  H    0.198196
    48  H    0.173594
    49  H    0.183778
    50  H    0.183847
    51  H    0.147473
    52  H    0.225988
    53  H    0.390392
    54  H    0.210686
    55  H    0.209486
    56  H    0.176802
    57  H    0.394976
    58  H    0.163493
    59  H    0.199441
    60  H    0.184986
    61  H    0.368093
    62  H    0.222578
    63  H    0.182896
    64  H    0.192392
 Sum of Mulliken atomic charges =   0.00000

 Dipole moment (field-independent basis, Debye):
    X=             -4.3288    Y=              1.0385    Z=              6.1954  Tot=              7.6289
 Quadrupole moment (field-independent basis, Debye-Ang):
   XX=           -181.4888   YY=           -167.7919   ZZ=           -167.6397
   XY=            -22.2656   XZ=            -18.5601   YZ=             14.7120

 Normal termination of Gaussian 09 at Thu Dec  5 16:15:45 2019.
