 Gaussian 09, Revision A.02,
 Gaussian 09:  EM64L-G09RevA.02 11-Jun-2009

 ---------------------------------
 #SP HF/6-31G* Geom=(ModRedundant)
 ---------------------------------

 ------------
 paramfit run
 ------------
 Symbolic Z-matrix:
 Charge =  0 Multiplicity = 1

                         Standard orientation:
 ---------------------------------------------------------------------
 Center     Atomic      Atomic             Coordinates (Angstroms)
 Number     Number       Type             X           Y           Z
 ---------------------------------------------------------------------
      1          6    20001001       -3.807283    2.855394    0.491162
      2          7    20001014       -4.146136    1.447663    0.517960
      3          6    20001002       -4.340681    0.777996   -0.642130
      4          8    20001024       -4.030168    1.231286   -1.708833
      5          6    90000001       -4.859701   -0.665932   -0.519339
      6          6    90000002       -5.458877   -1.111334   -1.857414
      7          6    90000002       -3.711895   -1.609769   -0.068433
      8          6    90000002       -2.464573   -1.747791   -0.959934
      9          6    90000002       -1.369376   -0.670706   -0.829284
     10          6    20001004       -0.824748   -0.514474    0.571162
     11          6    20001004        0.286396   -1.034574    1.066755
     12          6    90000002        1.285366   -1.914721    0.354607
     13          6    90000002        2.567862   -1.187701   -0.088350
     14          6    90000002        3.352821   -0.599246    1.091682
     15          6    90000002        4.752426    0.004477    0.806604
     16          6    90000002        5.290932    0.574250    2.129034
     17          7    20001014        5.631505   -1.060591    0.343591
     18          6    20001002        6.887803   -0.797226   -0.120533
     19          6    20001001        7.525476   -1.919939   -0.906467
     20          8    20001024        7.449938    0.244050    0.076678
     21          6    20001002        4.616729    1.047024   -0.326271
     22          8    20001024        4.620274    0.696775   -1.475723
     23          7    20001014        4.393796    2.329915    0.032157
     24          6    20001001        4.307662    3.365131   -0.977354
     25          7    20001014       -5.862350   -0.761074    0.551676
     26          6    20001002       -6.930064    0.079561    0.665654
     27          6    20001001       -8.022339   -0.391932    1.603069
     28          8    20001024       -6.997730    1.121961    0.078318
     29          1    20001035       -4.619318    3.458282    0.101194
     30          1    20001035       -2.936741    3.009481   -0.129433
     31          1    20001035       -3.579094    3.175265    1.500104
     32          1    20001029       -4.638282    1.112090    1.312610
     33          1    20001034       -4.738243   -1.025572   -2.656328
     34          1    20001034       -5.783116   -2.144961   -1.781764
     35          1    20001034       -6.307519   -0.494074   -2.113780
     36          1    20001034       -4.159417   -2.598030    0.010846
     37          1    20001034       -3.411451   -1.330562    0.936582
     38          1    20001034       -2.012927   -2.703554   -0.710635
     39          1    20001034       -2.759108   -1.816635   -2.001991
     40          1    20001034       -1.745655    0.284704   -1.171292
     41          1    20001034       -0.572104   -0.940349   -1.513013
     42          1    20001033       -1.419925    0.097910    1.229086
     43          1    20001033        0.520063   -0.809307    2.095548
     44          1    20001034        0.832419   -2.366320   -0.519671
     45          1    20001034        1.554619   -2.737562    1.015690
     46          1    20001034        3.176204   -1.898001   -0.641312
     47          1    20001034        2.311009   -0.405591   -0.790604
     48          1    20001034        3.495371   -1.366947    1.849211
     49          1    20001034        2.756438    0.181297    1.549319
     50          1    20001034        5.447036   -0.244637    2.821591
     51          1    20001034        4.577154    1.253044    2.584161
     52          1    20001034        6.233519    1.082126    1.989997
     53          1    20001029        5.175712   -1.823984   -0.101602
     54          1    20001034        8.596724   -1.787694   -0.905714
     55          1    20001034        7.169180   -1.870779   -1.931046
     56          1    20001034        7.274613   -2.894791   -0.502592
     57          1    20001029        4.634551    2.612148    0.952859
     58          1    20001035        4.007372    4.288794   -0.500284
     59          1    20001035        3.568123    3.093524   -1.716230
     60          1    20001035        5.256770    3.515921   -1.481547
     61          1    20001029       -5.959791   -1.659399    0.970084
     62          1    20001034       -8.599587    0.462732    1.924486
     63          1    20001034       -7.625168   -0.911081    2.468106
     64          1    20001034       -8.679255   -1.072373    1.070844
 ---------------------------------------------------------------------

 SCF Done:  E(RHF) =  -1295.62045864     A.U. after   14 cycles

 The electronic state is 1-A.
 Alpha  occ. eigenvalues --  -20.53760 -20.52006 -20.51719 -20.51533 -15.59696
 Alpha  occ. eigenvalues --  -15.57839 -15.57476 -15.57115 -11.36097 -11.34214
 Alpha  occ. eigenvalues --  -11.33810 -11.33620 -11.29054 -11.28512 -11.24916
 Alpha  occ. eigenvalues --  -11.24578 -11.24434 -11.23870 -11.23336 -11.22610
 Alpha  occ. eigenvalues --  -11.22483 -11.22481 -11.22286 -11.22132 -11.21927
 Alpha  occ. eigenvalues --  -11.21756 -11.21506 -11.21190  -1.40813  -1.39317
 Alpha  occ. eigenvalues --   -1.38553  -1.38039  -1.25447  -1.23501  -1.22551
 Alpha  occ. eigenvalues --   -1.21826  -1.10694  -1.09228  -1.07156  -1.04198
 Alpha  occ. eigenvalues --   -1.01225  -0.99366  -0.98710  -0.95332  -0.95075
 Alpha  occ. eigenvalues --   -0.94521  -0.92119  -0.87206  -0.85649  -0.82798
 Alpha  occ. eigenvalues --   -0.81375  -0.79449  -0.78856  -0.77014  -0.76819
 Alpha  occ. eigenvalues --   -0.71839  -0.71195  -0.70871  -0.69113  -0.67947
 Alpha  occ. eigenvalues --   -0.66621  -0.65685  -0.64501  -0.64045  -0.63672
 Alpha  occ. eigenvalues --   -0.62543  -0.62166  -0.61706  -0.61372  -0.61119
 Alpha  occ. eigenvalues --   -0.60911  -0.59674  -0.59302  -0.58710  -0.58480
 Alpha  occ. eigenvalues --   -0.58244  -0.57842  -0.56791  -0.56369  -0.56188
 Alpha  occ. eigenvalues --   -0.55462  -0.54804  -0.54694  -0.54330  -0.53808
 Alpha  occ. eigenvalues --   -0.53038  -0.52725  -0.52485  -0.52147  -0.51521
 Alpha  occ. eigenvalues --   -0.51325  -0.50260  -0.49729  -0.49165  -0.48510
 Alpha  occ. eigenvalues --   -0.48266  -0.46944  -0.46334  -0.44442  -0.42984
 Alpha  occ. eigenvalues --   -0.41589  -0.41450  -0.41020  -0.39551  -0.38784
 Alpha  occ. eigenvalues --   -0.38224  -0.37884  -0.34422
 Alpha virt. eigenvalues --    0.17407   0.18703   0.19705   0.20026   0.20374
 Alpha virt. eigenvalues --    0.21645   0.22026   0.23219   0.23389   0.24003
 Alpha virt. eigenvalues --    0.25288   0.25644   0.26571   0.27187   0.27654

 Mulliken atomic charges:
              1
     1  C   -0.278714
     2  N   -0.774872
     3  C    0.821574
     4  O   -0.631821
     5  C    0.093732
     6  C   -0.463227
     7  C   -0.324500
     8  C   -0.312806
     9  C   -0.373678
    10  C   -0.178934
    11  C   -0.177351
    12  C   -0.353319
    13  C   -0.310502
    14  C   -0.329062
    15  C    0.091012
    16  C   -0.509600
    17  N   -0.787621
    18  C    0.767322
    19  C   -0.595680
    20  O   -0.613902
    21  C    0.820638
    22  O   -0.639401
    23  N   -0.805886
    24  C   -0.275590
    25  N   -0.835323
    26  C    0.737855
    27  C   -0.588238
    28  O   -0.592771
    29  H    0.188412
    30  H    0.195904
    31  H    0.160632
    32  H    0.390262
    33  H    0.201227
    34  H    0.144077
    35  H    0.200233
    36  H    0.157283
    37  H    0.185192
    38  H    0.164101
    39  H    0.178090
    40  H    0.213962
    41  H    0.174695
    42  H    0.181412
    43  H    0.169544
    44  H    0.176649
    45  H    0.159941
    46  H    0.150791
    47  H    0.199585
    48  H    0.173003
    49  H    0.185269
    50  H    0.183404
    51  H    0.148461
    52  H    0.226526
    53  H    0.389765
    54  H    0.211083
    55  H    0.209471
    56  H    0.176212
    57  H    0.395260
    58  H    0.164912
    59  H    0.199923
    60  H    0.184812
    61  H    0.381936
    62  H    0.218143
    63  H    0.178290
    64  H    0.202202
 Sum of Mulliken atomic charges =   0.00000

 Dipole moment (field-independent basis, Debye):
    X=             -3.2757    Y=             -4.6112    Z=              6.1010  Tot=              8.3196
 Quadrupole moment (field-independent basis, Debye-Ang):
   XX=           -188.3498   YY=           -156.2644   ZZ=           -173.9978
   XY=             14.9249   XZ=            -15.5796   YZ=              9.2870

 Normal termination of Gaussian 09 at Thu Dec  5 17:02:05 2019.
