 Gaussian 09, Revision A.02,
 Gaussian 09:  EM64L-G09RevA.02 11-Jun-2009

 ---------------------------------
 #SP HF/6-31G* Geom=(ModRedundant)
 ---------------------------------

 ------------
 paramfit run
 ------------
 Symbolic Z-matrix:
 Charge =  0 Multiplicity = 1

                         Standard orientation:
 ---------------------------------------------------------------------
 Center     Atomic      Atomic             Coordinates (Angstroms)
 Number     Number       Type             X           Y           Z
 ---------------------------------------------------------------------
      1          6    20001001       -3.954333    2.861742   -0.078129
      2          7    20001014       -4.294508    1.464370    0.091804
      3          6    20001002       -4.452465    0.671266   -0.993619
      4          8    20001024       -4.108067    1.006115   -2.093170
      5          6    90000001       -4.975777   -0.752131   -0.730047
      6          6    90000002       -5.532413   -1.343002   -2.029612
      7          6    90000002       -3.843282   -1.637529   -0.142571
      8          6    90000002       -2.568373   -1.868455   -0.973785
      9          6    90000002       -1.477380   -0.780244   -0.927237
     10          6    20001004       -0.977375   -0.470151    0.464206
     11          6    20001004        0.117254   -0.929578    1.048563
     12          6    90000002        1.137907   -1.879310    0.468884
     13          6    90000002        2.434139   -1.201228   -0.010232
     14          6    90000002        3.181543   -0.484887    1.122534
     15          6    90000002        4.589762    0.088257    0.817458
     16          6    90000002        5.086312    0.800858    2.085956
     17          7    20001014        5.482598   -1.018402    0.501736
     18          6    20001002        6.753106   -0.803585    0.051490
     19          6    20001001        7.414874   -2.003587   -0.586368
     20          8    20001024        7.309177    0.254704    0.151251
     21          6    20001002        4.490542    1.000243   -0.426392
     22          8    20001024        4.530384    0.526401   -1.529937
     23          7    20001014        4.256938    2.313960   -0.217686
     24          6    20001001        4.203340    3.232300   -1.336607
     25          7    20001014       -6.011936   -0.732599    0.312749
     26          6    20001002       -6.048272    0.178757    1.326545
     27          6    20001001       -7.362853    0.255862    2.074911
     28          8    20001024       -5.107183    0.862099    1.615570
     29          1    20001035       -4.753315    3.415914   -0.557160
     30          1    20001035       -3.064475    2.949661   -0.684055
     31          1    20001035       -3.758114    3.290722    0.896463
     32          1    20001029       -4.811764    1.216232    0.902457
     33          1    20001034       -4.786762   -1.342952   -2.809956
     34          1    20001034       -5.859360   -2.363129   -1.851611
     35          1    20001034       -6.372215   -0.760044   -2.378638
     36          1    20001034       -4.293543   -2.612537    0.030180
     37          1    20001034       -3.574739   -1.249181    0.834850
     38          1    20001034       -2.125298   -2.789856   -0.607282
     39          1    20001034       -2.829739   -2.051737   -2.010834
     40          1    20001034       -1.842186    0.130893   -1.383427
     41          1    20001034       -0.658945   -1.120637   -1.551843
     42          1    20001033       -1.592841    0.208713    1.032060
     43          1    20001033        0.318274   -0.592448    2.053399
     44          1    20001034        0.712712   -2.425178   -0.364605
     45          1    20001034        1.385681   -2.624102    1.224190
     46          1    20001034        3.059391   -1.965903   -0.462679
     47          1    20001034        2.200047   -0.501388   -0.801594
     48          1    20001034        3.299644   -1.164705    1.963625
     49          1    20001034        2.571302    0.339219    1.472968
     50          1    20001034        5.219997    0.063097    2.868527
     51          1    20001034        4.358767    1.523198    2.441322
     52          1    20001034        6.033066    1.293324    1.922026
     53          1    20001029        5.040807   -1.827274    0.128564
     54          1    20001034        8.485620   -1.868822   -0.566260
     55          1    20001034        7.091278   -2.067847   -1.620912
     56          1    20001034        7.150882   -2.929175   -0.086390
     57          1    20001029        4.468498    2.695915    0.673752
     58          1    20001035        3.888491    4.201686   -0.973174
     59          1    20001035        3.487485    2.879287   -2.064315
     60          1    20001035        5.168032    3.329908   -1.824046
     61          1    20001029       -6.879963   -1.152054    0.063483
     62          1    20001034       -7.184138    0.681248    3.051682
     63          1    20001034       -7.833245   -0.715381    2.179636
     64          1    20001034       -8.043023    0.905903    1.533972
 ---------------------------------------------------------------------

 SCF Done:  E(RHF) =  -1295.35398557     A.U. after   14 cycles

 The electronic state is 1-A.
 Alpha  occ. eigenvalues --  -20.56922 -20.51625 -20.51053 -20.48452 -15.63498
 Alpha  occ. eigenvalues --  -15.57360 -15.57044 -15.45468 -11.41473 -11.33834
 Alpha  occ. eigenvalues --  -11.33141 -11.30331 -11.29057 -11.28012 -11.27238
 Alpha  occ. eigenvalues --  -11.24460 -11.22728 -11.22718 -11.22585 -11.22154
 Alpha  occ. eigenvalues --  -11.21675 -11.21598 -11.21593 -11.21298 -11.21004
 Alpha  occ. eigenvalues --  -11.20868 -11.20772 -11.20312  -1.55702  -1.38892
 Alpha  occ. eigenvalues --   -1.37603  -1.35546  -1.29213  -1.23059  -1.22075
 Alpha  occ. eigenvalues --   -1.18399  -1.10020  -1.09078  -1.06957  -1.04678
 Alpha  occ. eigenvalues --   -1.02547  -0.99600  -0.98364  -0.94732  -0.94154
 Alpha  occ. eigenvalues --   -0.93906  -0.92443  -0.90536  -0.86582  -0.85159
 Alpha  occ. eigenvalues --   -0.82130  -0.81008  -0.79121  -0.78841  -0.76359
 Alpha  occ. eigenvalues --   -0.73126  -0.71165  -0.70519  -0.70345  -0.67645
 Alpha  occ. eigenvalues --   -0.67182  -0.65723  -0.64744  -0.63737  -0.63202
 Alpha  occ. eigenvalues --   -0.62947  -0.61268  -0.61142  -0.60958  -0.60789
 Alpha  occ. eigenvalues --   -0.60471  -0.60132  -0.58817  -0.58423  -0.58130
 Alpha  occ. eigenvalues --   -0.57542  -0.57317  -0.56805  -0.56118  -0.55823
 Alpha  occ. eigenvalues --   -0.55702  -0.55027  -0.54536  -0.54266  -0.54110
 Alpha  occ. eigenvalues --   -0.52982  -0.52536  -0.51642  -0.51303  -0.50866
 Alpha  occ. eigenvalues --   -0.50330  -0.49413  -0.49243  -0.48341  -0.48023
 Alpha  occ. eigenvalues --   -0.47348  -0.46754  -0.45687  -0.44106  -0.43395
 Alpha  occ. eigenvalues --   -0.40993  -0.40626  -0.38332  -0.38151  -0.37750
 Alpha  occ. eigenvalues --   -0.34439  -0.33341  -0.32080
 Alpha virt. eigenvalues --    0.12679   0.18389   0.19016   0.20144   0.21885
 Alpha virt. eigenvalues --    0.22093   0.22518   0.23498   0.23796   0.24526
 Alpha virt. eigenvalues --    0.25614   0.26204   0.26895   0.27274   0.27929

 Mulliken atomic charges:
              1
     1  C   -0.261762
     2  N   -0.878613
     3  C    0.771653
     4  O   -0.659961
     5  C    0.071811
     6  C   -0.490014
     7  C   -0.283804
     8  C   -0.316639
     9  C   -0.373033
    10  C   -0.180736
    11  C   -0.181979
    12  C   -0.351155
    13  C   -0.309833
    14  C   -0.328804
    15  C    0.090713
    16  C   -0.509626
    17  N   -0.787683
    18  C    0.767455
    19  C   -0.595531
    20  O   -0.614491
    21  C    0.821023
    22  O   -0.639999
    23  N   -0.805138
    24  C   -0.275342
    25  N   -0.799075
    26  C    0.760464
    27  C   -0.587806
    28  O   -0.481150
    29  H    0.137621
    30  H    0.172317
    31  H    0.141137
    32  H    0.412833
    33  H    0.230339
    34  H    0.153000
    35  H    0.174950
    36  H    0.155465
    37  H    0.192009
    38  H    0.160797
    39  H    0.167484
    40  H    0.223276
    41  H    0.168215
    42  H    0.195665
    43  H    0.167420
    44  H    0.175300
    45  H    0.156927
    46  H    0.147937
    47  H    0.199849
    48  H    0.171977
    49  H    0.187200
    50  H    0.182700
    51  H    0.149292
    52  H    0.225257
    53  H    0.389881
    54  H    0.210090
    55  H    0.209211
    56  H    0.175944
    57  H    0.394987
    58  H    0.164916
    59  H    0.200745
    60  H    0.183191
    61  H    0.403061
    62  H    0.228489
    63  H    0.201552
    64  H    0.218021
 Sum of Mulliken atomic charges =   0.00000

 Dipole moment (field-independent basis, Debye):
    X=             -8.4294    Y=             -3.8500    Z=              5.2524  Tot=             10.6520
 Quadrupole moment (field-independent basis, Debye-Ang):
   XX=           -134.5695   YY=           -159.3022   ZZ=           -179.7355
   XY=              6.5403   XZ=            -10.8728   YZ=              7.7305

 Normal termination of Gaussian 09 at Thu Dec  5 16:16:26 2019.
