 Gaussian 09, Revision A.02,
 Gaussian 09:  EM64L-G09RevA.02 11-Jun-2009

 ---------------------------------
 #SP HF/6-31G* Geom=(ModRedundant)
 ---------------------------------

 ------------
 paramfit run
 ------------
 Symbolic Z-matrix:
 Charge =  0 Multiplicity = 1

                         Standard orientation:
 ---------------------------------------------------------------------
 Center     Atomic      Atomic             Coordinates (Angstroms)
 Number     Number       Type             X           Y           Z
 ---------------------------------------------------------------------
      1          6    20001001       -3.883452    3.009171    0.916542
      2          7    20001014       -4.276835    1.651593    0.601140
      3          6    20001002       -4.453173    1.282381   -0.689091
      4          8    20001024       -4.085608    1.958371   -1.609786
      5          6    90000001       -5.031461   -0.124544   -0.924744
      6          6    90000002       -5.596549   -0.215580   -2.346091
      7          6    90000002       -3.938480   -1.199732   -0.677832
      8          6    90000002       -2.664733   -1.182228   -1.542066
      9          6    90000002       -1.534705   -0.217536   -1.130918
     10          6    20001004       -1.037527   -0.419399    0.281294
     11          6    20001004        0.033423   -1.091920    0.670573
     12          6    90000002        1.023958   -1.825634   -0.201354
     13          6    90000002        2.349152   -1.074978   -0.424833
     14          6    90000002        3.111186   -0.816543    0.881854
     15          6    90000002        4.542652   -0.228041    0.785871
     16          6    90000002        5.052518   -0.009770    2.219692
     17          7    20001014        5.397007   -1.194211    0.109022
     18          6    20001002        6.679047   -0.887598   -0.245122
     19          6    20001001        7.302275   -1.822873   -1.255891
     20          8    20001024        7.272906    0.051308    0.207568
     21          6    20001002        4.489748    1.056235   -0.072362
     22          8    20001024        4.523069    0.985547   -1.271454
     23          7    20001014        4.302882    2.228168    0.572334
     24          6    20001001        4.294550    3.474106   -0.166430
     25          7    20001014       -6.076584   -0.421843    0.065591
     26          6    20001002       -5.831850   -1.012939    1.269910
     27          6    20001001       -6.957933   -0.909404    2.277548
     28          8    20001024       -4.806897   -1.584258    1.513233
     29          1    20001035       -4.656520    3.723509    0.657626
     30          1    20001035       -2.984921    3.264169    0.374010
     31          1    20001035       -3.681256    3.072622    1.978354
     32          1    20001029       -4.811025    1.162092    1.280341
     33          1    20001034       -4.843625    0.021809   -3.082084
     34          1    20001034       -5.962821   -1.222028   -2.525379
     35          1    20001034       -6.410643    0.483068   -2.472846
     36          1    20001034       -4.426254   -2.157292   -0.846283
     37          1    20001034       -3.665546   -1.178180    0.372559
     38          1    20001034       -2.259784   -2.189595   -1.512958
     39          1    20001034       -2.922303   -0.991101   -2.578648
     40          1    20001034       -1.860924    0.807752   -1.248092
     41          1    20001034       -0.723222   -0.355800   -1.836759
     42          1    20001033       -1.633087    0.048399    1.048488
     43          1    20001033        0.236713   -1.125240    1.729499
     44          1    20001034        0.587211   -2.038206   -1.169616
     45          1    20001034        1.236395   -2.792087    0.254094
     46          1    20001034        2.950155   -1.663078   -1.112808
     47          1    20001034        2.149083   -0.138992   -0.929543
     48          1    20001034        3.195591   -1.746227    1.440511
     49          1    20001034        2.528404   -0.138433    1.494132
     50          1    20001034        5.150937   -0.974544    2.703534
     51          1    20001034        4.348702    0.575546    2.802298
     52          1    20001034        6.018457    0.472502    2.230385
     53          1    20001029        4.929322   -1.810039   -0.516069
     54          1    20001034        8.377022   -1.744065   -1.194488
     55          1    20001034        6.986904   -1.518411   -2.249355
     56          1    20001034        6.999185   -2.852611   -1.100462
     57          1    20001029        4.519499    2.275186    1.539896
     58          1    20001035        4.012194    4.272968    0.506635
     59          1    20001035        3.573439    3.417777   -0.968585
     60          1    20001035        5.267031    3.694977   -0.594508
     61          1    20001029       -6.895974    0.140957    0.007272
     62          1    20001034       -6.848045   -1.699187    3.006341
     63          1    20001034       -7.934162   -0.976114    1.810560
     64          1    20001034       -6.891068    0.045160    2.789543
 ---------------------------------------------------------------------

 SCF Done:  E(RHF) =  -1295.58130327     A.U. after   14 cycles

 The electronic state is 1-A.
 Alpha  occ. eigenvalues --  -20.53555 -20.52950 -20.51715 -20.51236 -15.60154
 Alpha  occ. eigenvalues --  -15.58974 -15.57588 -15.57134 -11.36896 -11.34474
 Alpha  occ. eigenvalues --  -11.33919 -11.33320 -11.28817 -11.28133 -11.26206
 Alpha  occ. eigenvalues --  -11.25062 -11.24755 -11.22821 -11.22211 -11.21697
 Alpha  occ. eigenvalues --  -11.21673 -11.21603 -11.21424 -11.21056 -11.20876
 Alpha  occ. eigenvalues --  -11.20551 -11.20360 -11.19698  -1.41823  -1.39862
 Alpha  occ. eigenvalues --   -1.39021  -1.37748  -1.26075  -1.23226  -1.23158
 Alpha  occ. eigenvalues --   -1.22299  -1.09755  -1.08644  -1.06710  -1.03567
 Alpha  occ. eigenvalues --   -1.00930  -0.99227  -0.98382  -0.96647  -0.94612
 Alpha  occ. eigenvalues --   -0.93847  -0.91178  -0.86838  -0.85340  -0.82335
 Alpha  occ. eigenvalues --   -0.80606  -0.79801  -0.79100  -0.77706  -0.76531
 Alpha  occ. eigenvalues --   -0.73098  -0.71242  -0.70625  -0.69746  -0.67545
 Alpha  occ. eigenvalues --   -0.66133  -0.65872  -0.64354  -0.63654  -0.63384
 Alpha  occ. eigenvalues --   -0.63035  -0.62397  -0.61424  -0.61224  -0.60994
 Alpha  occ. eigenvalues --   -0.60738  -0.60549  -0.59219  -0.58762  -0.58272
 Alpha  occ. eigenvalues --   -0.57551  -0.56835  -0.56024  -0.55822  -0.55795
 Alpha  occ. eigenvalues --   -0.55440  -0.55111  -0.54554  -0.54350  -0.53504
 Alpha  occ. eigenvalues --   -0.53242  -0.53044  -0.52627  -0.52304  -0.51754
 Alpha  occ. eigenvalues --   -0.50997  -0.49861  -0.49421  -0.48543  -0.47814
 Alpha  occ. eigenvalues --   -0.46894  -0.45834  -0.45642  -0.44598  -0.43887
 Alpha  occ. eigenvalues --   -0.41129  -0.40724  -0.39647  -0.38936  -0.38490
 Alpha  occ. eigenvalues --   -0.38145  -0.37937  -0.33299
 Alpha virt. eigenvalues --    0.16861   0.18354   0.18580   0.19998   0.20034
 Alpha virt. eigenvalues --    0.21966   0.22404   0.23186   0.23708   0.24164
 Alpha virt. eigenvalues --    0.25725   0.26129   0.26608   0.27377   0.27926

 Mulliken atomic charges:
              1
     1  C   -0.281701
     2  N   -0.785596
     3  C    0.788725
     4  O   -0.617713
     5  C    0.063602
     6  C   -0.458083
     7  C   -0.347362
     8  C   -0.307378
     9  C   -0.371221
    10  C   -0.168122
    11  C   -0.180231
    12  C   -0.352278
    13  C   -0.310407
    14  C   -0.328350
    15  C    0.090680
    16  C   -0.509482
    17  N   -0.787500
    18  C    0.767328
    19  C   -0.595584
    20  O   -0.614864
    21  C    0.820896
    22  O   -0.639556
    23  N   -0.805879
    24  C   -0.274937
    25  N   -0.810291
    26  C    0.722509
    27  C   -0.583542
    28  O   -0.595512
    29  H    0.170558
    30  H    0.209747
    31  H    0.171405
    32  H    0.390928
    33  H    0.210925
    34  H    0.171140
    35  H    0.156055
    36  H    0.168315
    37  H    0.285402
    38  H    0.162113
    39  H    0.155073
    40  H    0.197563
    41  H    0.169119
    42  H    0.178956
    43  H    0.167687
    44  H    0.177707
    45  H    0.159775
    46  H    0.148770
    47  H    0.197517
    48  H    0.173570
    49  H    0.184935
    50  H    0.183737
    51  H    0.148091
    52  H    0.225212
    53  H    0.390384
    54  H    0.210184
    55  H    0.209183
    56  H    0.176651
    57  H    0.394969
    58  H    0.163436
    59  H    0.199464
    60  H    0.184265
    61  H    0.377522
    62  H    0.223716
    63  H    0.189215
    64  H    0.188565
 Sum of Mulliken atomic charges =   0.00000

 Dipole moment (field-independent basis, Debye):
    X=             -6.8232    Y=             -0.1676    Z=              4.0853  Tot=              7.9545
 Quadrupole moment (field-independent basis, Debye-Ang):
   XX=           -154.8505   YY=           -165.1954   ZZ=           -172.1887
   XY=            -14.6698   XZ=             -9.4209   YZ=             17.2467

 Normal termination of Gaussian 09 at Thu Dec  5 16:47:54 2019.
