 Gaussian 09, Revision A.02,
 Gaussian 09:  EM64L-G09RevA.02 11-Jun-2009

 ---------------------------------
 #SP HF/6-31G* Geom=(ModRedundant)
 ---------------------------------

 ------------
 paramfit run
 ------------
 Symbolic Z-matrix:
 Charge =  0 Multiplicity = 1

                         Standard orientation:
 ---------------------------------------------------------------------
 Center     Atomic      Atomic             Coordinates (Angstroms)
 Number     Number       Type             X           Y           Z
 ---------------------------------------------------------------------
      1          6    20001001        3.909589    2.800416   -0.107573
      2          7    20001014        4.234740    1.396812   -0.253922
      3          6    20001002        4.402079    0.624539    0.845032
      4          8    20001024        4.077360    0.984836    1.942525
      5          6    90000001        4.908690   -0.808670    0.602867
      6          6    90000002        5.479684   -1.378063    1.905786
      7          6    90000002        3.759615   -1.695404    0.050660
      8          6    90000002        2.495445   -1.897659    0.905414
      9          6    90000002        1.413569   -0.800651    0.852918
     10          6    20001004        0.895315   -0.514356   -0.536947
     11          6    20001004       -0.212072   -0.975510   -1.095326
     12          6    90000002       -1.232213   -1.903843   -0.481109
     13          6    90000002       -2.514972   -1.204283    0.003360
     14          6    90000002       -3.273065   -0.504307   -1.132528
     15          6    90000002       -4.671361    0.087828   -0.818217
     16          6    90000002       -5.180727    0.779001   -2.093472
     17          7    20001014       -5.569095   -1.003937   -0.466571
     18          6    20001002       -6.830681   -0.768351   -0.001859
     19          6    20001001       -7.493330   -1.949002    0.670274
     20          8    20001024       -7.378789    0.292748   -0.114942
     21          6    20001002       -4.545223    1.023982    0.405069
     22          8    20001024       -4.572546    0.573076    1.518561
     23          7    20001014       -4.303162    2.330982    0.166029
     24          6    20001001       -4.224476    3.271365    1.264979
     25          7    20001014        5.929067   -0.819869   -0.455498
     26          6    20001002        6.491183    0.307950   -0.976769
     27          6    20001001        7.753502    0.083453   -1.783162
     28          8    20001024        6.017549    1.397693   -0.820974
     29          1    20001035        4.720621    3.356862    0.347998
     30          1    20001035        3.029827    2.908809    0.509672
     31          1    20001035        3.702444    3.211261   -1.087701
     32          1    20001029        4.737437    1.127495   -1.066972
     33          1    20001034        4.745969   -1.355292    2.697036
     34          1    20001034        5.794834   -2.404558    1.743844
     35          1    20001034        6.329816   -0.795858    2.230194
     36          1    20001034        4.198541   -2.677817   -0.108803
     37          1    20001034        3.479753   -1.324574   -0.930381
     38          1    20001034        2.038713   -2.822219    0.564530
     39          1    20001034        2.770854   -2.062195    1.941971
     40          1    20001034        1.793313    0.116192    1.284841
     41          1    20001034        0.601703   -1.120739    1.496541
     42          1    20001033        1.508107    0.147137   -1.127731
     43          1    20001033       -0.425292   -0.657062   -2.103736
     44          1    20001034       -0.799301   -2.436520    0.356929
     45          1    20001034       -1.497998   -2.661542   -1.217210
     46          1    20001034       -3.140057   -1.953824    0.480679
     47          1    20001034       -2.262720   -0.490666    0.776632
     48          1    20001034       -3.409919   -1.199983   -1.957658
     49          1    20001034       -2.660914    0.306863   -1.508860
     50          1    20001034       -5.332791    0.026729   -2.858680
     51          1    20001034       -4.452269    1.487253   -2.474404
     52          1    20001034       -6.120483    1.283370   -1.925514
     53          1    20001029       -5.128895   -1.809071   -0.083563
     54          1    20001034       -8.563020   -1.804851    0.663435
     55          1    20001034       -7.154683   -1.995169    1.700959
     56          1    20001034       -7.245164   -2.886955    0.185464
     57          1    20001029       -4.524804    2.696646   -0.729780
     58          1    20001035       -3.906580    4.230225    0.877097
     59          1    20001035       -3.500840    2.926675    1.988971
     60          1    20001035       -5.180769    3.387721    1.764697
     61          1    20001029        6.467090   -1.654930   -0.524425
     62          1    20001034        7.894305    0.920351   -2.451556
     63          1    20001034        7.717920   -0.837958   -2.353500
     64          1    20001034        8.602491    0.032832   -1.109027
 ---------------------------------------------------------------------

 SCF Done:  E(RHF) =  -1295.47548090     A.U. after   16 cycles

 The electronic state is 1-A.
 Alpha  occ. eigenvalues --  -20.53594 -20.51806 -20.51283 -20.50284 -15.60981
 Alpha  occ. eigenvalues --  -15.57591 -15.57248 -15.52268 -11.37903 -11.34015
 Alpha  occ. eigenvalues --  -11.33370 -11.32161 -11.29066 -11.28248 -11.25117
 Alpha  occ. eigenvalues --  -11.24683 -11.23029 -11.23012 -11.22863 -11.22310
 Alpha  occ. eigenvalues --  -11.22147 -11.22039 -11.21962 -11.21914 -11.21514
 Alpha  occ. eigenvalues --  -11.21514 -11.21297 -11.20836  -1.45707  -1.39094
 Alpha  occ. eigenvalues --   -1.37811  -1.37134  -1.26562  -1.23268  -1.22304
 Alpha  occ. eigenvalues --   -1.20162  -1.10223  -1.08986  -1.06927  -1.04055
 Alpha  occ. eigenvalues --   -1.01490  -0.99527  -0.98531  -0.94865  -0.94399
 Alpha  occ. eigenvalues --   -0.93886  -0.91631  -0.86987  -0.85445  -0.84193
 Alpha  occ. eigenvalues --   -0.81885  -0.79348  -0.79064  -0.78908  -0.76579
 Alpha  occ. eigenvalues --   -0.71560  -0.71200  -0.70832  -0.69622  -0.67700
 Alpha  occ. eigenvalues --   -0.66160  -0.65551  -0.64472  -0.64042  -0.63365
 Alpha  occ. eigenvalues --   -0.62408  -0.61822  -0.61444  -0.61147  -0.60814
 Alpha  occ. eigenvalues --   -0.60446  -0.59659  -0.58979  -0.58757  -0.58361
 Alpha  occ. eigenvalues --   -0.57848  -0.57167  -0.56852  -0.56205  -0.55952
 Alpha  occ. eigenvalues --   -0.55440  -0.55223  -0.54568  -0.54450  -0.53402
 Alpha  occ. eigenvalues --   -0.52767  -0.52278  -0.52019  -0.51607  -0.51259
 Alpha  occ. eigenvalues --   -0.50507  -0.49873  -0.49521  -0.48471  -0.48322
 Alpha  occ. eigenvalues --   -0.47720  -0.47223  -0.45984  -0.43849  -0.43537
 Alpha  occ. eigenvalues --   -0.41578  -0.41210  -0.40813  -0.38921  -0.38547
 Alpha  occ. eigenvalues --   -0.37977  -0.33829  -0.30235
 Alpha virt. eigenvalues --    0.16679   0.17953   0.19460   0.19937   0.21056
 Alpha virt. eigenvalues --    0.21880   0.22289   0.23524   0.23672   0.25139
 Alpha virt. eigenvalues --    0.25260   0.26076   0.26762   0.27519   0.27870

 Mulliken atomic charges:
              1
     1  C   -0.262282
     2  N   -0.756510
     3  C    0.784538
     4  O   -0.651768
     5  C    0.079985
     6  C   -0.461886
     7  C   -0.281317
     8  C   -0.316925
     9  C   -0.372405
    10  C   -0.178241
    11  C   -0.179748
    12  C   -0.352084
    13  C   -0.310125
    14  C   -0.328889
    15  C    0.090845
    16  C   -0.509609
    17  N   -0.787647
    18  C    0.767392
    19  C   -0.595600
    20  O   -0.614225
    21  C    0.820851
    22  O   -0.639741
    23  N   -0.805506
    24  C   -0.275438
    25  N   -0.816240
    26  C    0.740952
    27  C   -0.580089
    28  O   -0.624955
    29  H    0.165156
    30  H    0.187560
    31  H    0.155530
    32  H    0.435259
    33  H    0.215323
    34  H    0.144372
    35  H    0.178445
    36  H    0.149268
    37  H    0.184571
    38  H    0.161493
    39  H    0.170655
    40  H    0.219019
    41  H    0.170616
    42  H    0.185959
    43  H    0.167952
    44  H    0.176038
    45  H    0.158293
    46  H    0.149208
    47  H    0.199628
    48  H    0.172483
    49  H    0.186208
    50  H    0.183062
    51  H    0.148870
    52  H    0.225848
    53  H    0.389838
    54  H    0.210556
    55  H    0.209303
    56  H    0.176089
    57  H    0.395131
    58  H    0.164899
    59  H    0.200269
    60  H    0.183972
    61  H    0.388936
    62  H    0.217561
    63  H    0.182719
    64  H    0.206581
 Sum of Mulliken atomic charges =   0.00000

 Dipole moment (field-independent basis, Debye):
    X=              5.9543    Y=             -4.2070    Z=             -5.2015  Tot=              8.9559
 Quadrupole moment (field-independent basis, Debye-Ang):
   XX=           -159.7772   YY=           -157.4807   ZZ=           -177.6401
   XY=            -11.5164   XZ=             -8.8727   YZ=             -6.6665

 Normal termination of Gaussian 09 at Thu Dec  5 16:40:49 2019.
