 Gaussian 09, Revision A.02,
 Gaussian 09:  EM64L-G09RevA.02 11-Jun-2009

 ---------------------------------
 #SP HF/6-31G* Geom=(ModRedundant)
 ---------------------------------

 ------------
 paramfit run
 ------------
 Symbolic Z-matrix:
 Charge =  0 Multiplicity = 1

                         Standard orientation:
 ---------------------------------------------------------------------
 Center     Atomic      Atomic             Coordinates (Angstroms)
 Number     Number       Type             X           Y           Z
 ---------------------------------------------------------------------
      1          6    20001001       -3.940503    2.813771   -0.044571
      2          7    20001014       -4.270083    1.415859    0.141078
      3          6    20001002       -4.430222    0.611338   -0.935588
      4          8    20001024       -4.095714    0.937904   -2.040670
      5          6    90000001       -4.942106   -0.812918   -0.654777
      6          6    90000002       -5.503750   -1.419930   -1.944712
      7          6    90000002       -3.799634   -1.685072   -0.066807
      8          6    90000002       -2.528993   -1.915469   -0.904676
      9          6    90000002       -1.445050   -0.819618   -0.876160
     10          6    20001004       -0.937509   -0.492860    0.508726
     11          6    20001004        0.164210   -0.939355    1.089773
     12          6    90000002        1.187187   -1.887788    0.512066
     13          6    90000002        2.475476   -1.205717    0.017438
     14          6    90000002        3.225878   -0.473573    1.138052
     15          6    90000002        4.628060    0.105984    0.817671
     16          6    90000002        5.128586    0.834020    2.075799
     17          7    20001014        5.526111   -0.997683    0.506296
     18          6    20001002        6.791993   -0.778739    0.045141
     19          6    20001001        7.457382   -1.980374   -0.585839
     20          8    20001024        7.341610    0.284139    0.130896
     21          6    20001002        4.514087    1.005307   -0.434109
     22          8    20001024        4.549465    0.521170   -1.533330
     23          7    20001014        4.273102    2.319382   -0.236333
     24          6    20001001        4.205572    3.226562   -1.363572
     25          7    20001014       -5.971119   -0.790278    0.395009
     26          6    20001002       -6.255944    0.307673    1.152010
     27          6    20001001       -7.562818    0.241269    1.914763
     28          8    20001024       -5.522759    1.253075    1.221241
     29          1    20001035       -4.746497    3.357985   -0.523272
     30          1    20001035       -3.055479    2.901795   -0.657520
     31          1    20001035       -3.740425    3.253383    0.924482
     32          1    20001029       -4.780027    1.172074    0.957664
     33          1    20001034       -4.763543   -1.422404   -2.730219
     34          1    20001034       -5.822584   -2.440457   -1.754692
     35          1    20001034       -6.349854   -0.845957   -2.293407
     36          1    20001034       -4.242118   -2.661355    0.118395
     37          1    20001034       -3.526941   -1.285580    0.904957
     38          1    20001034       -2.077200   -2.830337   -0.532498
     39          1    20001034       -2.796303   -2.110434   -1.938073
     40          1    20001034       -1.819131    0.084648   -1.338468
     41          1    20001034       -0.628693   -1.160532   -1.503195
     42          1    20001033       -1.553577    0.187309    1.074361
     43          1    20001033        0.369918   -0.591263    2.089911
     44          1    20001034        0.759907   -2.444451   -0.313176
     45          1    20001034        1.445196   -2.623628    1.272699
     46          1    20001034        3.102706   -1.970518   -0.432047
     47          1    20001034        2.231200   -0.515080   -0.778917
     48          1    20001034        3.354376   -1.144484    1.984752
     49          1    20001034        2.612549    0.349776    1.484859
     50          1    20001034        5.272653    0.104712    2.864427
     51          1    20001034        4.398679    1.554876    2.429330
     52          1    20001034        6.070846    1.331186    1.900553
     53          1    20001029        5.087196   -1.813025    0.143968
     54          1    20001034        8.527311   -1.838293   -0.574511
     55          1    20001034        7.127062   -2.056716   -1.617433
     56          1    20001034        7.203096   -2.902858   -0.075208
     57          1    20001029        4.488262    2.711277    0.649915
     58          1    20001035        3.886735    4.197273   -1.007222
     59          1    20001035        3.487081    2.861820   -2.082849
     60          1    20001035        5.166183    3.325910   -1.858659
     61          1    20001029       -6.700687   -1.460660    0.295683
     62          1    20001034       -7.516726    0.928572    2.746907
     63          1    20001034       -7.776265   -0.757997    2.277332
     64          1    20001034       -8.373200    0.545107    1.259962
 ---------------------------------------------------------------------

 SCF Done:  E(RHF) =  -1295.21584686     A.U. after   17 cycles

 The electronic state is 1-A.
 Alpha  occ. eigenvalues --  -20.58253 -20.51607 -20.51022 -20.47075 -15.63407
 Alpha  occ. eigenvalues --  -15.57329 -15.57024 -15.44370 -11.41813 -11.33816
 Alpha  occ. eigenvalues --  -11.33111 -11.29133 -11.28749 -11.27990 -11.27584
 Alpha  occ. eigenvalues --  -11.24423 -11.22701 -11.22424 -11.22313 -11.22137
 Alpha  occ. eigenvalues --  -11.21628 -11.21548 -11.21429 -11.21285 -11.20943
 Alpha  occ. eigenvalues --  -11.20820 -11.20714 -11.20109  -1.59343  -1.38868
 Alpha  occ. eigenvalues --   -1.37576  -1.34394  -1.29742  -1.23038  -1.22044
 Alpha  occ. eigenvalues --   -1.19649  -1.09833  -1.08902  -1.06894  -1.04857
 Alpha  occ. eigenvalues --   -1.02611  -0.99467  -0.98328  -0.96926  -0.94532
 Alpha  occ. eigenvalues --   -0.94048  -0.92539  -0.90811  -0.86611  -0.85102
 Alpha  occ. eigenvalues --   -0.82011  -0.81269  -0.79066  -0.78765  -0.76332
 Alpha  occ. eigenvalues --   -0.72954  -0.71162  -0.70490  -0.69668  -0.67705
 Alpha  occ. eigenvalues --   -0.67299  -0.65628  -0.65129  -0.63709  -0.63054
 Alpha  occ. eigenvalues --   -0.62753  -0.61392  -0.61182  -0.60991  -0.60813
 Alpha  occ. eigenvalues --   -0.60650  -0.60392  -0.59590  -0.58738  -0.58142
 Alpha  occ. eigenvalues --   -0.57565  -0.57114  -0.56613  -0.55985  -0.55837
 Alpha  occ. eigenvalues --   -0.55672  -0.54881  -0.54281  -0.54196  -0.53643
 Alpha  occ. eigenvalues --   -0.53063  -0.52501  -0.51640  -0.51390  -0.50611
 Alpha  occ. eigenvalues --   -0.50090  -0.49327  -0.48981  -0.48137  -0.47924
 Alpha  occ. eigenvalues --   -0.47336  -0.46662  -0.45649  -0.43316  -0.43153
 Alpha  occ. eigenvalues --   -0.40967  -0.40606  -0.38356  -0.38306  -0.37720
 Alpha  occ. eigenvalues --   -0.34715  -0.33274  -0.25558
 Alpha virt. eigenvalues --    0.12942   0.18343   0.18823   0.20167   0.22092
 Alpha virt. eigenvalues --    0.22119   0.22525   0.23395   0.23817   0.24667
 Alpha virt. eigenvalues --    0.25621   0.26161   0.26874   0.27149   0.27896

 Mulliken atomic charges:
              1
     1  C   -0.252829
     2  N   -0.888780
     3  C    0.731017
     4  O   -0.675244
     5  C    0.084183
     6  C   -0.477392
     7  C   -0.268593
     8  C   -0.315847
     9  C   -0.372153
    10  C   -0.178970
    11  C   -0.182365
    12  C   -0.350794
    13  C   -0.309825
    14  C   -0.328702
    15  C    0.090766
    16  C   -0.509571
    17  N   -0.787733
    18  C    0.767455
    19  C   -0.595521
    20  O   -0.614519
    21  C    0.821074
    22  O   -0.639877
    23  N   -0.805129
    24  C   -0.275396
    25  N   -0.814591
    26  C    0.725465
    27  C   -0.577499
    28  O   -0.376817
    29  H    0.140192
    30  H    0.175310
    31  H    0.138459
    32  H    0.394988
    33  H    0.228018
    34  H    0.143471
    35  H    0.174869
    36  H    0.145283
    37  H    0.179354
    38  H    0.158571
    39  H    0.168214
    40  H    0.228221
    41  H    0.166847
    42  H    0.191815
    43  H    0.165765
    44  H    0.175775
    45  H    0.156252
    46  H    0.147794
    47  H    0.200276
    48  H    0.171654
    49  H    0.187053
    50  H    0.182523
    51  H    0.149134
    52  H    0.225243
    53  H    0.389911
    54  H    0.210027
    55  H    0.209297
    56  H    0.175873
    57  H    0.394857
    58  H    0.164869
    59  H    0.201086
    60  H    0.183092
    61  H    0.402295
    62  H    0.227455
    63  H    0.206937
    64  H    0.217400
 Sum of Mulliken atomic charges =   0.00000

 Dipole moment (field-independent basis, Debye):
    X=             -8.5245    Y=             -4.1526    Z=              6.0655  Tot=             11.2562
 Quadrupole moment (field-independent basis, Debye-Ang):
   XX=           -134.0785   YY=           -159.1806   ZZ=           -178.9599
   XY=              8.9372   XZ=            -14.5384   YZ=              7.1682

 Normal termination of Gaussian 09 at Thu Dec  5 16:28:39 2019.
