 Gaussian 09, Revision A.02,
 Gaussian 09:  EM64L-G09RevA.02 11-Jun-2009

 ---------------------------------
 #SP HF/6-31G* Geom=(ModRedundant)
 ---------------------------------

 ------------
 paramfit run
 ------------
 Symbolic Z-matrix:
 Charge =  0 Multiplicity = 1

                         Standard orientation:
 ---------------------------------------------------------------------
 Center     Atomic      Atomic             Coordinates (Angstroms)
 Number     Number       Type             X           Y           Z
 ---------------------------------------------------------------------
      1          6    20001001       -3.744938    2.922221    0.644355
      2          7    20001014       -4.101313    1.518706    0.624661
      3          6    20001002       -4.312577    0.892426   -0.556546
      4          8    20001024       -4.004009    1.378832   -1.609134
      5          6    90000001       -4.848870   -0.548388   -0.480202
      6          6    90000002       -5.463168   -0.939342   -1.828399
      7          6    90000002       -3.709862   -1.521506   -0.071174
      8          6    90000002       -2.470785   -1.643697   -0.976379
      9          6    90000002       -1.361188   -0.585443   -0.816595
     10          6    20001004       -0.804634   -0.484966    0.584272
     11          6    20001004        0.303379   -1.035745    1.053000
     12          6    90000002        1.286054   -1.902750    0.303063
     13          6    90000002        2.574415   -1.176596   -0.124013
     14          6    90000002        3.375149   -0.639462    1.069815
     15          6    90000002        4.780181   -0.043483    0.795335
     16          6    90000002        5.335271    0.473052    2.132689
     17          7    20001014        5.642428   -1.102504    0.288840
     18          6    20001002        6.898596   -0.838623   -0.175343
     19          6    20001001        7.516426   -1.940988   -1.004731
     20          8    20001024        7.475210    0.188105    0.053756
     21          6    20001002        4.649543    1.039598   -0.299468
     22          8    20001024        4.640451    0.729699   -1.460419
     23          7    20001014        4.445372    2.311842    0.105119
     24          6    20001001        4.365081    3.382675   -0.867029
     25          7    20001014       -5.844956   -0.668493    0.594423
     26          6    20001002       -7.084912   -0.103162    0.543644
     27          6    20001001       -8.073425   -0.628843    1.563752
     28          8    20001024       -7.372121    0.755820   -0.241088
     29          1    20001035       -4.552074    3.548348    0.281800
     30          1    20001035       -2.876983    3.087129    0.022919
     31          1    20001035       -3.505525    3.203810    1.662069
     32          1    20001029       -4.591957    1.161684    1.410848
     33          1    20001034       -4.747240   -0.834632   -2.629284
     34          1    20001034       -5.799864   -1.970897   -1.786349
     35          1    20001034       -6.305771   -0.303069   -2.056659
     36          1    20001034       -4.169230   -2.506330   -0.022981
     37          1    20001034       -3.398742   -1.281309    0.940651
     38          1    20001034       -2.029456   -2.613092   -0.763964
     39          1    20001034       -2.773609   -1.672455   -2.017938
     40          1    20001034       -1.727827    0.385906   -1.122244
     41          1    20001034       -0.572290   -0.840864   -1.515331
     42          1    20001033       -1.387322    0.111366    1.267628
     43          1    20001033        0.547218   -0.849457    2.087215
     44          1    20001034        0.821209   -2.317904   -0.582958
     45          1    20001034        1.549632   -2.751444    0.933014
     46          1    20001034        3.169784   -1.874607   -0.705986
     47          1    20001034        2.322429   -0.367320   -0.796623
     48          1    20001034        3.513421   -1.434859    1.799034
     49          1    20001034        2.791943    0.131925    1.558880
     50          1    20001034        5.485986   -0.371393    2.795092
     51          1    20001034        4.633381    1.144298    2.616591
     52          1    20001034        6.283168    0.973795    2.004285
     53          1    20001029        5.173874   -1.844191   -0.179208
     54          1    20001034        8.589234   -1.822091   -1.007497
     55          1    20001034        7.153461   -1.851670   -2.024242
     56          1    20001034        7.256186   -2.926180   -0.633173
     57          1    20001029        4.696244    2.558745    1.033242
     58          1    20001035        4.079880    4.292747   -0.355804
     59          1    20001035        3.616912    3.146199   -1.609287
     60          1    20001035        5.312386    3.539250   -1.372848
     61          1    20001029       -5.744937   -1.463410    1.185737
     62          1    20001034       -8.849333    0.108376    1.710200
     63          1    20001034       -7.601725   -0.856662    2.513040
     64          1    20001034       -8.527858   -1.538128    1.183628
 ---------------------------------------------------------------------

 SCF Done:  E(RHF) =  -1295.62093890     A.U. after   14 cycles

 The electronic state is 1-A.
 Alpha  occ. eigenvalues --  -20.53518 -20.52061 -20.51997 -20.51603 -15.59569
 Alpha  occ. eigenvalues --  -15.57911 -15.57819 -15.57538 -11.35892 -11.34269
 Alpha  occ. eigenvalues --  -11.33899 -11.33690 -11.28994 -11.28586 -11.25171
 Alpha  occ. eigenvalues --  -11.24987 -11.24313 -11.24081 -11.23423 -11.22730
 Alpha  occ. eigenvalues --  -11.22592 -11.22527 -11.22380 -11.22288 -11.22085
 Alpha  occ. eigenvalues --  -11.21826 -11.21641 -11.20478  -1.40463  -1.39379
 Alpha  occ. eigenvalues --   -1.38860  -1.38102  -1.25439  -1.23565  -1.22623
 Alpha  occ. eigenvalues --   -1.22281  -1.10801  -1.09271  -1.07202  -1.04235
 Alpha  occ. eigenvalues --   -1.01236  -0.99274  -0.98738  -0.95681  -0.95138
 Alpha  occ. eigenvalues --   -0.94592  -0.92223  -0.87296  -0.85732  -0.82843
 Alpha  occ. eigenvalues --   -0.81302  -0.79506  -0.78727  -0.77270  -0.76888
 Alpha  occ. eigenvalues --   -0.71938  -0.71533  -0.71216  -0.68879  -0.68000
 Alpha  occ. eigenvalues --   -0.66774  -0.65935  -0.64550  -0.63900  -0.63692
 Alpha  occ. eigenvalues --   -0.62636  -0.62472  -0.61813  -0.61436  -0.61177
 Alpha  occ. eigenvalues --   -0.60945  -0.60033  -0.59352  -0.58723  -0.58403
 Alpha  occ. eigenvalues --   -0.58252  -0.57784  -0.56417  -0.56292  -0.56202
 Alpha  occ. eigenvalues --   -0.55508  -0.54886  -0.54785  -0.54755  -0.54076
 Alpha  occ. eigenvalues --   -0.53118  -0.52925  -0.52459  -0.52095  -0.51530
 Alpha  occ. eigenvalues --   -0.50785  -0.50333  -0.49787  -0.49321  -0.48563
 Alpha  occ. eigenvalues --   -0.48398  -0.46892  -0.46427  -0.44596  -0.42990
 Alpha  occ. eigenvalues --   -0.42027  -0.41517  -0.41076  -0.39069  -0.38850
 Alpha  occ. eigenvalues --   -0.38587  -0.38294  -0.34569
 Alpha virt. eigenvalues --    0.17278   0.18858   0.19636   0.19799   0.20147
 Alpha virt. eigenvalues --    0.21580   0.21949   0.23135   0.23168   0.23914
 Alpha virt. eigenvalues --    0.25302   0.25695   0.26502   0.27056   0.27656

 Mulliken atomic charges:
              1
     1  C   -0.280114
     2  N   -0.786547
     3  C    0.818508
     4  O   -0.624503
     5  C    0.109685
     6  C   -0.484283
     7  C   -0.340626
     8  C   -0.311517
     9  C   -0.373846
    10  C   -0.178991
    11  C   -0.176802
    12  C   -0.353586
    13  C   -0.310612
    14  C   -0.329078
    15  C    0.091073
    16  C   -0.509581
    17  N   -0.787620
    18  C    0.767293
    19  C   -0.595702
    20  O   -0.613848
    21  C    0.820587
    22  O   -0.639246
    23  N   -0.806009
    24  C   -0.275614
    25  N   -0.849723
    26  C    0.749716
    27  C   -0.588913
    28  O   -0.591102
    29  H    0.184852
    30  H    0.200054
    31  H    0.163285
    32  H    0.391513
    33  H    0.196942
    34  H    0.144001
    35  H    0.227398
    36  H    0.165679
    37  H    0.177960
    38  H    0.164641
    39  H    0.181461
    40  H    0.212971
    41  H    0.175527
    42  H    0.179449
    43  H    0.169591
    44  H    0.177039
    45  H    0.160284
    46  H    0.151245
    47  H    0.199603
    48  H    0.173108
    49  H    0.184917
    50  H    0.183492
    51  H    0.148261
    52  H    0.226698
    53  H    0.389783
    54  H    0.211213
    55  H    0.209552
    56  H    0.176266
    57  H    0.395257
    58  H    0.164803
    59  H    0.199860
    60  H    0.185060
    61  H    0.383415
    62  H    0.219031
    63  H    0.176186
    64  H    0.200606
 Sum of Mulliken atomic charges =   0.00000

 Dipole moment (field-independent basis, Debye):
    X=             -2.4045    Y=             -4.2593    Z=              6.7116  Tot=              8.3048
 Quadrupole moment (field-independent basis, Debye-Ang):
   XX=           -199.5799   YY=           -155.5244   ZZ=           -172.9160
   XY=             12.5739   XZ=            -20.0570   YZ=             10.2301

 Normal termination of Gaussian 09 at Thu Dec  5 16:04:49 2019.
