 Gaussian 09, Revision A.02,
 Gaussian 09:  EM64L-G09RevA.02 11-Jun-2009

 ---------------------------------
 #SP HF/6-31G* Geom=(ModRedundant)
 ---------------------------------

 ------------
 paramfit run
 ------------
 Symbolic Z-matrix:
 Charge =  0 Multiplicity = 1

                         Standard orientation:
 ---------------------------------------------------------------------
 Center     Atomic      Atomic             Coordinates (Angstroms)
 Number     Number       Type             X           Y           Z
 ---------------------------------------------------------------------
      1          6    20001001       -3.863937    2.815029    0.301610
      2          7    20001014       -4.192074    1.407160    0.388078
      3          6    20001002       -4.371301    0.685139   -0.742707
      4          8    20001024       -4.055032    1.093186   -1.825858
      5          6    90000001       -4.880147   -0.756099   -0.560242
      6          6    90000002       -5.464167   -1.265271   -1.882175
      7          6    90000002       -3.729023   -1.669634   -0.058277
      8          6    90000002       -2.472946   -1.836900   -0.932308
      9          6    90000002       -1.387322   -0.746201   -0.840480
     10          6    20001004       -0.856147   -0.523583    0.556149
     11          6    20001004        0.254640   -1.012128    1.083626
     12          6    90000002        1.266578   -1.914832    0.419654
     13          6    90000002        2.547204   -1.197757   -0.044422
     14          6    90000002        3.317261   -0.551175    1.114827
     15          6    90000002        4.714569    0.050684    0.814924
     16          6    90000002        5.237093    0.682913    2.115195
     17          7    20001014        5.605888   -1.026680    0.407042
     18          6    20001002        6.864101   -0.773939   -0.057802
     19          6    20001001        7.517292   -1.925177   -0.787733
     20          8    20001024        7.416397    0.279600    0.097654
     21          6    20001002        4.580660    1.040821   -0.364237
     22          8    20001024        4.596938    0.639978   -1.496927
     23          7    20001014        4.344662    2.336490   -0.065024
     24          6    20001001        4.259295    3.325179   -1.120207
     25          7    20001014       -5.891322   -0.811806    0.505522
     26          6    20001002       -6.724844    0.222854    0.812752
     27          6    20001001       -7.912293   -0.143527    1.678691
     28          8    20001024       -6.529208    1.343985    0.437343
     29          1    20001035       -4.677198    3.393398   -0.121528
     30          1    20001035       -2.989243    2.948523   -0.317918
     31          1    20001035       -3.647037    3.181180    1.297221
     32          1    20001029       -4.688506    1.103166    1.192707
     33          1    20001034       -4.737286   -1.209163   -2.678057
     34          1    20001034       -5.781020   -2.297131   -1.763400
     35          1    20001034       -6.315309   -0.666918   -2.172791
     36          1    20001034       -4.169534   -2.657017    0.061078
     37          1    20001034       -3.439523   -1.343692    0.935821
     38          1    20001034       -2.016086   -2.776959   -0.637034
     39          1    20001034       -2.757848   -1.954289   -1.972705
     40          1    20001034       -1.768012    0.190005   -1.227722
     41          1    20001034       -0.582055   -1.039403   -1.504867
     42          1    20001033       -1.461769    0.112513    1.181223
     43          1    20001033        0.477579   -0.739560    2.103316
     44          1    20001034        0.824785   -2.408435   -0.437458
     45          1    20001034        1.536440   -2.705324    1.118861
     46          1    20001034        3.165836   -1.926907   -0.560183
     47          1    20001034        2.290417   -0.449680   -0.782847
     48          1    20001034        3.459159   -1.283337    1.906874
     49          1    20001034        2.710873    0.244016    1.532339
     50          1    20001034        5.393508   -0.103155    2.844724
     51          1    20001034        4.514130    1.375391    2.533739
     52          1    20001034        6.176885    1.191779    1.961621
     53          1    20001029        5.159930   -1.812751   -0.007596
     54          1    20001034        8.587435   -1.784312   -0.783899
     55          1    20001034        7.169566   -1.924409   -1.816427
     56          1    20001034        7.270494   -2.883167   -0.343066
     57          1    20001029        4.575188    2.661230    0.844213
     58          1    20001035        3.947699    4.266616   -0.687163
     59          1    20001035        3.528352    3.015057   -1.852445
     60          1    20001035        5.211561    3.461180   -1.622647
     61          1    20001029       -6.209739   -1.723572    0.748092
     62          1    20001034       -8.269640    0.746434    2.175930
     63          1    20001034       -7.665424   -0.899763    2.415380
     64          1    20001034       -8.706840   -0.530070    1.048547
 ---------------------------------------------------------------------

 SCF Done:  E(RHF) =  -1295.59652584     A.U. after   14 cycles

 The electronic state is 1-A.
 Alpha  occ. eigenvalues --  -20.53690 -20.51925 -20.51511 -20.51432 -15.60019
 Alpha  occ. eigenvalues --  -15.57738 -15.57384 -15.55610 -11.36473 -11.34133
 Alpha  occ. eigenvalues --  -11.33519 -11.33516 -11.29104 -11.28405 -11.24822
 Alpha  occ. eigenvalues --  -11.24596 -11.23764 -11.23505 -11.23205 -11.22413
 Alpha  occ. eigenvalues --  -11.22351 -11.22306 -11.22139 -11.21886 -11.21738
 Alpha  occ. eigenvalues --  -11.21676 -11.21656 -11.21268  -1.41762  -1.39227
 Alpha  occ. eigenvalues --   -1.38223  -1.37947  -1.25559  -1.23407  -1.22451
 Alpha  occ. eigenvalues --   -1.21112  -1.10510  -1.09135  -1.07069  -1.04128
 Alpha  occ. eigenvalues --   -1.01223  -0.99442  -0.98644  -0.95051  -0.94745
 Alpha  occ. eigenvalues --   -0.94353  -0.91920  -0.87059  -0.85524  -0.82695
 Alpha  occ. eigenvalues --   -0.81515  -0.79392  -0.79064  -0.76722  -0.76615
 Alpha  occ. eigenvalues --   -0.71727  -0.71101  -0.70606  -0.69838  -0.67856
 Alpha  occ. eigenvalues --   -0.66424  -0.65223  -0.64554  -0.64174  -0.63550
 Alpha  occ. eigenvalues --   -0.62422  -0.61937  -0.61614  -0.61289  -0.60938
 Alpha  occ. eigenvalues --   -0.60859  -0.59416  -0.58892  -0.58744  -0.58522
 Alpha  occ. eigenvalues --   -0.58203  -0.57770  -0.56970  -0.56307  -0.56103
 Alpha  occ. eigenvalues --   -0.55391  -0.54710  -0.54595  -0.54195  -0.53547
 Alpha  occ. eigenvalues --   -0.52929  -0.52611  -0.52309  -0.51995  -0.51564
 Alpha  occ. eigenvalues --   -0.51351  -0.50146  -0.49643  -0.48897  -0.48407
 Alpha  occ. eigenvalues --   -0.48062  -0.46964  -0.46193  -0.44252  -0.43809
 Alpha  occ. eigenvalues --   -0.41354  -0.40936  -0.40646  -0.40211  -0.38688
 Alpha  occ. eigenvalues --   -0.38124  -0.35739  -0.34185
 Alpha virt. eigenvalues --    0.17623   0.18201   0.19799   0.19873   0.20724
 Alpha virt. eigenvalues --    0.21740   0.22138   0.23362   0.23667   0.24399
 Alpha virt. eigenvalues --    0.25303   0.25738   0.26624   0.27363   0.27755

 Mulliken atomic charges:
              1
     1  C   -0.270845
     2  N   -0.747523
     3  C    0.806245
     4  O   -0.637415
     5  C    0.083492
     6  C   -0.454710
     7  C   -0.302304
     8  C   -0.315283
     9  C   -0.373207
    10  C   -0.178691
    11  C   -0.178256
    12  C   -0.352871
    13  C   -0.310342
    14  C   -0.329011
    15  C    0.090932
    16  C   -0.509616
    17  N   -0.787623
    18  C    0.767354
    19  C   -0.595648
    20  O   -0.614021
    21  C    0.820719
    22  O   -0.639586
    23  N   -0.805719
    24  C   -0.275524
    25  N   -0.821655
    26  C    0.725760
    27  C   -0.585978
    28  O   -0.598261
    29  H    0.182830
    30  H    0.190159
    31  H    0.157381
    32  H    0.389026
    33  H    0.206674
    34  H    0.144048
    35  H    0.185114
    36  H    0.151931
    37  H    0.187577
    38  H    0.163171
    39  H    0.174250
    40  H    0.215009
    41  H    0.173230
    42  H    0.183810
    43  H    0.169124
    44  H    0.176296
    45  H    0.159366
    46  H    0.150137
    47  H    0.199530
    48  H    0.172835
    49  H    0.185704
    50  H    0.183284
    51  H    0.148680
    52  H    0.226251
    53  H    0.389779
    54  H    0.210876
    55  H    0.209376
    56  H    0.176164
    57  H    0.395238
    58  H    0.164963
    59  H    0.200002
    60  H    0.184465
    61  H    0.382912
    62  H    0.216926
    63  H    0.179924
    64  H    0.203547
 Sum of Mulliken atomic charges =   0.00000

 Dipole moment (field-independent basis, Debye):
    X=             -4.4175    Y=             -4.5501    Z=              5.4800  Tot=              8.3814
 Quadrupole moment (field-independent basis, Debye-Ang):
   XX=           -175.4274   YY=           -156.9465   ZZ=           -175.5661
   XY=             14.2976   XZ=            -11.1369   YZ=              7.8096

 Normal termination of Gaussian 09 at Thu Dec  5 16:51:22 2019.
