 Gaussian 09, Revision A.02,
 Gaussian 09:  EM64L-G09RevA.02 11-Jun-2009

 ---------------------------------
 #SP HF/6-31G* Geom=(ModRedundant)
 ---------------------------------

 ------------
 paramfit run
 ------------
 Symbolic Z-matrix:
 Charge =  0 Multiplicity = 1

                         Standard orientation:
 ---------------------------------------------------------------------
 Center     Atomic      Atomic             Coordinates (Angstroms)
 Number     Number       Type             X           Y           Z
 ---------------------------------------------------------------------
      1          6    20001001       -2.496783    2.404798    0.064392
      2          7    20001014       -3.059672    1.090786   -0.167502
      3          6    20001002       -4.385648    0.956580   -0.403902
      4          8    20001024       -5.094451    1.891832   -0.654197
      5          6    90000001       -4.925628   -0.483242   -0.472604
      6          6    90000002       -5.547589   -0.732785   -1.850550
      7          6    90000002       -3.787391   -1.495730   -0.171129
      8          6    90000002       -2.553091   -1.527526   -1.090436
      9          6    90000002       -1.439745   -0.493740   -0.828931
     10          6    20001004       -0.876089   -0.538405    0.571989
     11          6    20001004        0.232636   -1.136808    0.976214
     12          6    90000002        1.209194   -1.924800    0.136478
     13          6    90000002        2.497502   -1.161740   -0.220681
     14          6    90000002        3.305557   -0.751420    1.017705
     15          6    90000002        4.710912   -0.133732    0.798421
     16          6    90000002        5.273968    0.241979    2.178733
     17          7    20001014        5.567687   -1.137362    0.181822
     18          6    20001002        6.822319   -0.830276   -0.259376
     19          6    20001001        7.432985   -1.843421   -1.200347
     20          8    20001024        7.402939    0.166290    0.070594
     21          6    20001002        4.577998    1.055978   -0.179151
     22          8    20001024        4.562374    0.866508   -1.365653
     23          7    20001014        4.379394    2.280618    0.354510
     24          6    20001001        4.297390    3.445479   -0.502566
     25          7    20001014       -5.916799   -0.710366    0.589199
     26          6    20001002       -7.073694    0.001543    0.709413
     27          6    20001001       -8.110435   -0.607265    1.630632
     28          8    20001024       -7.256129    1.039695    0.139241
     29          1    20001035       -2.861342    2.842667    0.986518
     30          1    20001035       -2.754953    3.061888   -0.753107
     31          1    20001035       -1.418915    2.315163    0.114590
     32          1    20001029       -2.603699    0.317786    0.257755
     33          1    20001034       -4.835280   -0.548336   -2.640187
     34          1    20001034       -5.886987   -1.762447   -1.912521
     35          1    20001034       -6.389495   -0.074551   -2.008189
     36          1    20001034       -4.249298   -2.479253   -0.221579
     37          1    20001034       -3.470667   -1.361038    0.858349
     38          1    20001034       -2.113469   -2.514583   -0.980575
     39          1    20001034       -2.861065   -1.448866   -2.127903
     40          1    20001034       -1.805126    0.504628   -1.031719
     41          1    20001034       -0.654984   -0.678150   -1.554174
     42          1    20001033       -1.453755   -0.013775    1.315749
     43          1    20001033        0.482037   -1.057876    2.022794
     44          1    20001034        0.738866   -2.246049   -0.784964
     45          1    20001034        1.473440   -2.834101    0.674940
     46          1    20001034        3.088054   -1.797916   -0.874058
     47          1    20001034        2.244527   -0.287313   -0.805670
     48          1    20001034        3.445135   -1.617569    1.661007
     49          1    20001034        2.726922   -0.032775    1.586106
     50          1    20001034        5.425524   -0.666154    2.750489
     51          1    20001034        4.576342    0.861811    2.732364
     52          1    20001034        6.222638    0.751040    2.097362
     53          1    20001029        5.094766   -1.826184   -0.357233
     54          1    20001034        8.506098   -1.727344   -1.196446
     55          1    20001034        7.065310   -1.649424   -2.203495
     56          1    20001034        7.171779   -2.860855   -0.930194
     57          1    20001029        4.635481    2.430685    1.301720
     58          1    20001035        4.017254    4.299125    0.100536
     59          1    20001035        3.544947    3.287915   -1.261269
     60          1    20001035        5.242656    3.650798   -0.994572
     61          1    20001029       -5.913847   -1.621163    0.991676
     62          1    20001034       -8.782768    0.170590    1.962120
     63          1    20001034       -7.661582   -1.093119    2.489717
     64          1    20001034       -8.682898   -1.348392    1.082164
 ---------------------------------------------------------------------

 SCF Done:  E(RHF) =  -1295.51397608     A.U. after   15 cycles

 The electronic state is 1-A.
 Alpha  occ. eigenvalues --  -20.52490 -20.52160 -20.50546 -20.50264 -15.58444
 Alpha  occ. eigenvalues --  -15.58095 -15.58033 -15.56890 -11.34698 -11.34241
 Alpha  occ. eigenvalues --  -11.33546 -11.32768 -11.29157 -11.28765 -11.25489
 Alpha  occ. eigenvalues --  -11.25486 -11.24288 -11.24153 -11.24138 -11.23910
 Alpha  occ. eigenvalues --  -11.23683 -11.23641 -11.23274 -11.22902 -11.22692
 Alpha  occ. eigenvalues --  -11.22304 -11.21500 -11.21257  -1.39871  -1.38597
 Alpha  occ. eigenvalues --   -1.38533  -1.36831  -1.24636  -1.24071  -1.23199
 Alpha  occ. eigenvalues --   -1.23155  -1.11979  -1.09781  -1.07915  -1.05014
 Alpha  occ. eigenvalues --   -1.01507  -0.99317  -0.98663  -0.96145  -0.95866
 Alpha  occ. eigenvalues --   -0.95229  -0.93213  -0.87887  -0.86170  -0.84716
 Alpha  occ. eigenvalues --   -0.82479  -0.80012  -0.78706  -0.77405  -0.77364
 Alpha  occ. eigenvalues --   -0.73638  -0.71949  -0.70616  -0.68516  -0.67922
 Alpha  occ. eigenvalues --   -0.66810  -0.65538  -0.64845  -0.64194  -0.64158
 Alpha  occ. eigenvalues --   -0.62796  -0.62390  -0.62002  -0.61912  -0.61615
 Alpha  occ. eigenvalues --   -0.60864  -0.59918  -0.59338  -0.59179  -0.58998
 Alpha  occ. eigenvalues --   -0.57605  -0.57109  -0.57045  -0.56812  -0.56482
 Alpha  occ. eigenvalues --   -0.55705  -0.55355  -0.55271  -0.55008  -0.54013
 Alpha  occ. eigenvalues --   -0.53834  -0.53215  -0.53110  -0.52466  -0.51465
 Alpha  occ. eigenvalues --   -0.50359  -0.50319  -0.50080  -0.49402  -0.49277
 Alpha  occ. eigenvalues --   -0.48495  -0.47804  -0.47212  -0.45904  -0.42549
 Alpha  occ. eigenvalues --   -0.42050  -0.41519  -0.39363  -0.38838  -0.38657
 Alpha  occ. eigenvalues --   -0.37128  -0.36618  -0.35203
 Alpha virt. eigenvalues --    0.15485   0.19129   0.20042   0.20885   0.21056
 Alpha virt. eigenvalues --    0.21210   0.21266   0.22381   0.22997   0.23584
 Alpha virt. eigenvalues --    0.25169   0.25543   0.25771   0.26767   0.27107

 Mulliken atomic charges:
              1
     1  C   -0.285346
     2  N   -0.894201
     3  C    0.790304
     4  O   -0.565454
     5  C    0.131628
     6  C   -0.483339
     7  C   -0.405488
     8  C   -0.288366
     9  C   -0.483530
    10  C   -0.191677
    11  C   -0.182111
    12  C   -0.356481
    13  C   -0.312449
    14  C   -0.330077
    15  C    0.091357
    16  C   -0.509848
    17  N   -0.787431
    18  C    0.767191
    19  C   -0.595896
    20  O   -0.612915
    21  C    0.819812
    22  O   -0.639165
    23  N   -0.806738
    24  C   -0.275949
    25  N   -0.821977
    26  C    0.736214
    27  C   -0.587922
    28  O   -0.550859
    29  H    0.183961
    30  H    0.212291
    31  H    0.168889
    32  H    0.437068
    33  H    0.167091
    34  H    0.150660
    35  H    0.236280
    36  H    0.175036
    37  H    0.184143
    38  H    0.174689
    39  H    0.179548
    40  H    0.296483
    41  H    0.181504
    42  H    0.193935
    43  H    0.179029
    44  H    0.182738
    45  H    0.165506
    46  H    0.155435
    47  H    0.199317
    48  H    0.175237
    49  H    0.183033
    50  H    0.184638
    51  H    0.148482
    52  H    0.228269
    53  H    0.389388
    54  H    0.212489
    55  H    0.209506
    56  H    0.176654
    57  H    0.396244
    58  H    0.166144
    59  H    0.197697
    60  H    0.186874
    61  H    0.375089
    62  H    0.216391
    63  H    0.170996
    64  H    0.189976
 Sum of Mulliken atomic charges =   0.00000

 Dipole moment (field-independent basis, Debye):
    X=              1.4256    Y=             -6.1806    Z=              3.7349  Tot=              7.3608
 Quadrupole moment (field-independent basis, Debye-Ang):
   XX=           -224.8069   YY=           -162.1136   ZZ=           -168.5202
   XY=             25.8557   XZ=             -5.4957   YZ=              7.2459

 Normal termination of Gaussian 09 at Thu Dec  5 16:33:21 2019.
