 Gaussian 09, Revision A.02,
 Gaussian 09:  EM64L-G09RevA.02 11-Jun-2009

 ---------------------------------
 #SP HF/6-31G* Geom=(ModRedundant)
 ---------------------------------

 ------------
 paramfit run
 ------------
 Symbolic Z-matrix:
 Charge =  0 Multiplicity = 1

                         Standard orientation:
 ---------------------------------------------------------------------
 Center     Atomic      Atomic             Coordinates (Angstroms)
 Number     Number       Type             X           Y           Z
 ---------------------------------------------------------------------
      1          6    20001001       -2.576837    2.428088    0.223111
      2          7    20001014       -3.110721    1.099751    0.004630
      3          6    20001002       -4.382021    0.946971   -0.434190
      4          8    20001024       -5.028874    1.859499   -0.868493
      5          6    90000001       -4.921462   -0.494004   -0.478698
      6          6    90000002       -5.542310   -0.767255   -1.852642
      7          6    90000002       -3.783107   -1.500797   -0.159138
      8          6    90000002       -2.548111   -1.547851   -1.076854
      9          6    90000002       -1.435312   -0.509359   -0.832214
     10          6    20001004       -0.872685   -0.529900    0.569680
     11          6    20001004        0.235940   -1.120926    0.984885
     12          6    90000002        1.213391   -1.922798    0.159448
     13          6    90000002        2.501707   -1.165493   -0.209735
     14          6    90000002        3.308699   -0.733807    1.022063
     15          6    90000002        4.714008   -0.119459    0.793305
     16          6    90000002        5.275907    0.279962    2.167417
     17          7    20001014        5.571583   -1.133168    0.194566
     18          6    20001002        6.826439   -0.833219   -0.250882
     19          6    20001001        7.438151   -1.862068   -1.173966
     20          8    20001024        7.406475    0.169039    0.062453
     21          6    20001002        4.581421    1.053341   -0.204536
     22          8    20001024        4.566746    0.843635   -1.387640
     23          7    20001014        4.382003    2.286844    0.307990
     24          6    20001001        4.300244    3.436872   -0.568909
     25          7    20001014       -5.913348   -0.703314    0.586094
     26          6    20001002       -7.070574    0.010136    0.693279
     27          6    20001001       -8.107795   -0.583217    1.623991
     28          8    20001024       -7.252935    1.038339    0.105329
     29          1    20001035       -3.081303    2.936683    1.036619
     30          1    20001035       -2.690152    3.019059   -0.673904
     31          1    20001035       -1.522754    2.343045    0.455556
     32          1    20001029       -2.739790    0.362585    0.557153
     33          1    20001034       -4.829475   -0.596065   -2.644787
     34          1    20001034       -5.881314   -1.797946   -1.897276
     35          1    20001034       -6.384322   -0.112106   -2.022120
     36          1    20001034       -4.244643   -2.485201   -0.193129
     37          1    20001034       -3.467198   -1.348437    0.868125
     38          1    20001034       -2.108237   -2.532734   -0.949832
     39          1    20001034       -2.855338   -1.487025   -2.115741
     40          1    20001034       -1.800879    0.485272   -1.052289
     41          1    20001034       -0.649947   -0.705850   -1.553622
     42          1    20001033       -1.451084    0.007148    1.303948
     43          1    20001033        0.484533   -1.024048    2.030149
     44          1    20001034        0.743859   -2.259897   -0.756724
     45          1    20001034        1.477544   -2.822680    0.713552
     46          1    20001034        3.092963   -1.812525   -0.851717
     47          1    20001034        2.248872   -0.301271   -0.809754
     48          1    20001034        3.448091   -1.588797    1.680163
     49          1    20001034        2.729397   -0.005765    1.577683
     50          1    20001034        5.427344   -0.618223    2.754707
     51          1    20001034        4.577659    0.908911    2.709868
     52          1    20001034        6.224464    0.787893    2.078068
     53          1    20001029        5.099297   -1.831261   -0.333000
     54          1    20001034        8.511221   -1.745564   -1.171253
     55          1    20001034        7.071157   -1.685355   -2.180551
     56          1    20001034        7.177087   -2.874832   -0.886674
     57          1    20001029        4.637333    2.453151    1.252690
     58          1    20001035        4.019369    4.300594    0.019323
     59          1    20001035        3.548421    3.266115   -1.325368
     60          1    20001035        5.245808    3.634092   -1.063650
     61          1    20001029       -5.910388   -1.607105    1.004065
     62          1    20001034       -8.780639    0.199946    1.941652
     63          1    20001034       -7.659419   -1.054177    2.491577
     64          1    20001034       -8.679598   -1.333802    1.087834
 ---------------------------------------------------------------------

 SCF Done:  E(RHF) =  -1295.54732900     A.U. after   15 cycles

 The electronic state is 1-A.
 Alpha  occ. eigenvalues --  -20.52462 -20.52120 -20.50977 -20.50564 -15.58406
 Alpha  occ. eigenvalues --  -15.58312 -15.58002 -15.57105 -11.34670 -11.34202
 Alpha  occ. eigenvalues --  -11.33874 -11.32904 -11.29122 -11.28785 -11.25449
 Alpha  occ. eigenvalues --  -11.25399 -11.24313 -11.24109 -11.24003 -11.23802
 Alpha  occ. eigenvalues --  -11.23582 -11.23523 -11.23213 -11.22901 -11.22876
 Alpha  occ. eigenvalues --  -11.22278 -11.21773 -11.21085  -1.39837  -1.38679
 Alpha  occ. eigenvalues --   -1.38563  -1.37161  -1.24302  -1.24039  -1.23117
 Alpha  occ. eigenvalues --   -1.23059  -1.11821  -1.09702  -1.07846  -1.04798
 Alpha  occ. eigenvalues --   -1.01448  -0.99295  -0.98708  -0.95937  -0.95791
 Alpha  occ. eigenvalues --   -0.95143  -0.93027  -0.87649  -0.86170  -0.84478
 Alpha  occ. eigenvalues --   -0.82067  -0.79973  -0.78718  -0.77521  -0.77370
 Alpha  occ. eigenvalues --   -0.73141  -0.71891  -0.70656  -0.68468  -0.68070
 Alpha  occ. eigenvalues --   -0.67092  -0.65683  -0.64845  -0.64235  -0.64002
 Alpha  occ. eigenvalues --   -0.62717  -0.62397  -0.62066  -0.61881  -0.61604
 Alpha  occ. eigenvalues --   -0.60705  -0.59840  -0.59331  -0.59107  -0.58835
 Alpha  occ. eigenvalues --   -0.57671  -0.57315  -0.57057  -0.56765  -0.56461
 Alpha  occ. eigenvalues --   -0.55740  -0.55349  -0.55232  -0.54895  -0.54345
 Alpha  occ. eigenvalues --   -0.53800  -0.53405  -0.52903  -0.52347  -0.51452
 Alpha  occ. eigenvalues --   -0.50318  -0.50250  -0.50116  -0.49679  -0.49275
 Alpha  occ. eigenvalues --   -0.48671  -0.47642  -0.47173  -0.45846  -0.42353
 Alpha  occ. eigenvalues --   -0.42014  -0.41490  -0.39328  -0.39005  -0.38797
 Alpha  occ. eigenvalues --   -0.37470  -0.36968  -0.35505
 Alpha virt. eigenvalues --    0.15584   0.19161   0.19801   0.20791   0.20950
 Alpha virt. eigenvalues --    0.21093   0.21307   0.22325   0.22954   0.23561
 Alpha virt. eigenvalues --    0.25162   0.25491   0.25823   0.26768   0.27285

 Mulliken atomic charges:
              1
     1  C   -0.284582
     2  N   -0.865253
     3  C    0.802722
     4  O   -0.571747
     5  C    0.122255
     6  C   -0.480456
     7  C   -0.391784
     8  C   -0.295866
     9  C   -0.405901
    10  C   -0.196836
    11  C   -0.179378
    12  C   -0.355961
    13  C   -0.312375
    14  C   -0.329963
    15  C    0.091362
    16  C   -0.509791
    17  N   -0.787458
    18  C    0.767194
    19  C   -0.595884
    20  O   -0.612974
    21  C    0.819905
    22  O   -0.639086
    23  N   -0.806721
    24  C   -0.275967
    25  N   -0.822101
    26  C    0.737789
    27  C   -0.588395
    28  O   -0.557378
    29  H    0.184870
    30  H    0.208590
    31  H    0.168745
    32  H    0.406259
    33  H    0.167705
    34  H    0.148261
    35  H    0.237393
    36  H    0.173153
    37  H    0.177426
    38  H    0.171395
    39  H    0.178101
    40  H    0.261383
    41  H    0.176996
    42  H    0.174288
    43  H    0.177826
    44  H    0.182219
    45  H    0.165192
    46  H    0.155175
    47  H    0.199709
    48  H    0.175005
    49  H    0.182971
    50  H    0.184526
    51  H    0.148336
    52  H    0.228196
    53  H    0.389425
    54  H    0.212404
    55  H    0.209554
    56  H    0.176612
    57  H    0.396099
    58  H    0.165972
    59  H    0.198089
    60  H    0.186735
    61  H    0.375688
    62  H    0.216839
    63  H    0.171914
    64  H    0.191584
 Sum of Mulliken atomic charges =   0.00000

 Dipole moment (field-independent basis, Debye):
    X=              1.1653    Y=             -6.0975    Z=              4.3244  Tot=              7.5655
 Quadrupole moment (field-independent basis, Debye-Ang):
   XX=           -222.8711   YY=           -161.8911   ZZ=           -169.1641
   XY=             25.3923   XZ=             -8.3390   YZ=              8.1653

 Normal termination of Gaussian 09 at Thu Dec  5 16:27:25 2019.
