 Gaussian 09, Revision A.02,
 Gaussian 09:  EM64L-G09RevA.02 11-Jun-2009

 ---------------------------------
 #SP HF/6-31G* Geom=(ModRedundant)
 ---------------------------------

 ------------
 paramfit run
 ------------
 Symbolic Z-matrix:
 Charge =  0 Multiplicity = 1

                         Standard orientation:
 ---------------------------------------------------------------------
 Center     Atomic      Atomic             Coordinates (Angstroms)
 Number     Number       Type             X           Y           Z
 ---------------------------------------------------------------------
      1          6    20001001       -4.797396    3.213960   -0.390131
      2          7    20001014       -5.213197    1.826752   -0.387376
      3          6    20001002       -4.287434    0.844785   -0.283383
      4          8    20001024       -3.150007    1.060930    0.031713
      5          6    90000001       -4.797642   -0.597072   -0.456940
      6          6    90000002       -5.422845   -0.756319   -1.846762
      7          6    90000002       -3.636647   -1.604759   -0.237265
      8          6    90000002       -2.407714   -1.541600   -1.162128
      9          6    90000002       -1.314593   -0.506728   -0.829317
     10          6    20001004       -0.741393   -0.643756    0.561704
     11          6    20001004        0.382091   -1.246900    0.914916
     12          6    90000002        1.369633   -1.949084    0.014109
     13          6    90000002        2.639468   -1.134246   -0.291051
     14          6    90000002        3.446492   -0.800334    0.970744
     15          6    90000002        4.837242   -0.138223    0.791665
     16          6    90000002        5.400934    0.145382    2.193547
     17          7    20001014        5.710928   -1.074589    0.097818
     18          6    20001002        6.956092   -0.708801   -0.325054
     19          6    20001001        7.581900   -1.635698   -1.341927
     20          8    20001024        7.517820    0.272512    0.075733
     21          6    20001002        4.673409    1.117994   -0.093660
     22          8    20001024        4.654338    1.017269   -1.290916
     23          7    20001014        4.452605    2.294906    0.530922
     24          6    20001001        4.340939    3.518443   -0.236339
     25          7    20001014       -5.777206   -0.923823    0.589539
     26          6    20001002       -6.947945   -0.247661    0.768001
     27          6    20001001       -7.965972   -0.945429    1.645989
     28          8    20001024       -7.155578    0.826009    0.277840
     29          1    20001035       -4.215517    3.458783   -1.271282
     30          1    20001035       -4.197233    3.416808    0.484729
     31          1    20001035       -5.680630    3.839609   -0.361596
     32          1    20001029       -6.048568    1.600074   -0.874263
     33          1    20001034       -4.719488   -0.498356   -2.623727
     34          1    20001034       -5.741044   -1.785485   -1.983901
     35          1    20001034       -6.279284   -0.106239   -1.950853
     36          1    20001034       -4.078216   -2.591391   -0.358897
     37          1    20001034       -3.316385   -1.540522    0.797910
     38          1    20001034       -1.946896   -2.524517   -1.128369
     39          1    20001034       -2.723735   -1.392347   -2.189371
     40          1    20001034       -1.702006    0.495978   -0.955244
     41          1    20001034       -0.530694   -0.619773   -1.569965
     42          1    20001033       -1.325236   -0.188489    1.345268
     43          1    20001033        0.636317   -1.240964    1.963293
     44          1    20001034        0.900374   -2.210645   -0.926555
     45          1    20001034        1.656170   -2.890183    0.481893
     46          1    20001034        3.239089   -1.707192   -0.992879
     47          1    20001034        2.364637   -0.224204   -0.807891
     48          1    20001034        3.608143   -1.708887    1.546881
     49          1    20001034        2.856532   -0.138574    1.593941
     50          1    20001034        5.574992   -0.799438    2.695145
     51          1    20001034        4.693984    0.707193    2.795187
     52          1    20001034        6.338237    0.679181    2.146010
     53          1    20001029        5.249140   -1.731196   -0.488980
     54          1    20001034        8.652358   -1.497410   -1.334372
     55          1    20001034        7.203998   -1.375286   -2.326051
     56          1    20001034        7.343692   -2.675779   -1.147325
     57          1    20001029        4.711409    2.379317    1.485491
     58          1    20001035        4.046804    4.318564    0.430153
     59          1    20001035        3.587230    3.401928   -1.001175
     60          1    20001035        5.278621    3.779973   -0.716037
     61          1    20001029       -5.752718   -1.861834    0.922828
     62          1    20001034       -8.652323   -0.208963    2.037797
     63          1    20001034       -7.501715   -1.484345    2.464271
     64          1    20001034       -8.526244   -1.655600    1.046362
 ---------------------------------------------------------------------

 SCF Done:  E(RHF) =  -1295.57664202     A.U. after   14 cycles

 The electronic state is 1-A.
 Alpha  occ. eigenvalues --  -20.53299 -20.51788 -20.51625 -20.51072 -15.59707
 Alpha  occ. eigenvalues --  -15.57394 -15.57023 -15.55573 -11.36224 -11.33833
 Alpha  occ. eigenvalues --  -11.33626 -11.33154 -11.29307 -11.27970 -11.24558
 Alpha  occ. eigenvalues --  -11.24272 -11.24154 -11.23056 -11.22966 -11.22613
 Alpha  occ. eigenvalues --  -11.22169 -11.21717 -11.21443 -11.21354 -11.21268
 Alpha  occ. eigenvalues --  -11.20478 -11.20213 -11.19072  -1.41307  -1.39050
 Alpha  occ. eigenvalues --   -1.38898  -1.37615  -1.25184  -1.23037  -1.22110
 Alpha  occ. eigenvalues --   -1.21614  -1.09618  -1.08739  -1.06457  -1.03575
 Alpha  occ. eigenvalues --   -1.00692  -0.99511  -0.98372  -0.94723  -0.94439
 Alpha  occ. eigenvalues --   -0.94140  -0.91618  -0.86901  -0.85092  -0.82851
 Alpha  occ. eigenvalues --   -0.80978  -0.78994  -0.78096  -0.76946  -0.76371
 Alpha  occ. eigenvalues --   -0.71652  -0.71110  -0.70384  -0.68869  -0.67421
 Alpha  occ. eigenvalues --   -0.66046  -0.65350  -0.64476  -0.64129  -0.63395
 Alpha  occ. eigenvalues --   -0.62601  -0.61693  -0.61196  -0.60983  -0.60701
 Alpha  occ. eigenvalues --   -0.60155  -0.59647  -0.58851  -0.58490  -0.58104
 Alpha  occ. eigenvalues --   -0.57729  -0.57207  -0.56755  -0.55938  -0.55670
 Alpha  occ. eigenvalues --   -0.55041  -0.54757  -0.54355  -0.54225  -0.54080
 Alpha  occ. eigenvalues --   -0.52799  -0.52551  -0.52374  -0.52032  -0.51489
 Alpha  occ. eigenvalues --   -0.50621  -0.49357  -0.49151  -0.48069  -0.47519
 Alpha  occ. eigenvalues --   -0.47384  -0.45592  -0.45521  -0.43130  -0.42906
 Alpha  occ. eigenvalues --   -0.42344  -0.40988  -0.40625  -0.38720  -0.38339
 Alpha  occ. eigenvalues --   -0.37770  -0.35877  -0.32836
 Alpha virt. eigenvalues --    0.18498   0.18801   0.19451   0.20150   0.20822
 Alpha virt. eigenvalues --    0.22098   0.22556   0.23820   0.24407   0.25486
 Alpha virt. eigenvalues --    0.25675   0.26251   0.26918   0.27546   0.27981

 Mulliken atomic charges:
              1
     1  C   -0.276635
     2  N   -0.747920
     3  C    0.796230
     4  O   -0.634553
     5  C    0.083933
     6  C   -0.490318
     7  C   -0.315847
     8  C   -0.319741
     9  C   -0.345968
    10  C   -0.168453
    11  C   -0.186831
    12  C   -0.348328
    13  C   -0.308906
    14  C   -0.328509
    15  C    0.090439
    16  C   -0.509649
    17  N   -0.787598
    18  C    0.767441
    19  C   -0.595462
    20  O   -0.614796
    21  C    0.821310
    22  O   -0.640673
    23  N   -0.804922
    24  C   -0.274717
    25  N   -0.810905
    26  C    0.771157
    27  C   -0.589365
    28  O   -0.621393
    29  H    0.159791
    30  H    0.195115
    31  H    0.172015
    32  H    0.424354
    33  H    0.182639
    34  H    0.168955
    35  H    0.183562
    36  H    0.147434
    37  H    0.196184
    38  H    0.162557
    39  H    0.155074
    40  H    0.235729
    41  H    0.150715
    42  H    0.191605
    43  H    0.163303
    44  H    0.174427
    45  H    0.154217
    46  H    0.146018
    47  H    0.198644
    48  H    0.171800
    49  H    0.187691
    50  H    0.182846
    51  H    0.149370
    52  H    0.224759
    53  H    0.390018
    54  H    0.209924
    55  H    0.208753
    56  H    0.176106
    57  H    0.395164
    58  H    0.164571
    59  H    0.199291
    60  H    0.183027
    61  H    0.386434
    62  H    0.217981
    63  H    0.184558
    64  H    0.196352
 Sum of Mulliken atomic charges =   0.00000

 Dipole moment (field-independent basis, Debye):
    X=             -5.9316    Y=             -4.0207    Z=              1.2516  Tot=              7.2743
 Quadrupole moment (field-independent basis, Debye-Ang):
   XX=           -175.5289   YY=           -155.6537   ZZ=           -166.7279
   XY=              6.8397   XZ=              5.6309   YZ=              2.8322

 Normal termination of Gaussian 09 at Thu Dec  5 15:59:46 2019.
