 Gaussian 09, Revision A.02,
 Gaussian 09:  EM64L-G09RevA.02 11-Jun-2009

 ---------------------------------
 #SP HF/6-31G* Geom=(ModRedundant)
 ---------------------------------

 ------------
 paramfit run
 ------------
 Symbolic Z-matrix:
 Charge =  0 Multiplicity = 1

                         Standard orientation:
 ---------------------------------------------------------------------
 Center     Atomic      Atomic             Coordinates (Angstroms)
 Number     Number       Type             X           Y           Z
 ---------------------------------------------------------------------
      1          6    20001001       -2.689220    2.469058    0.361659
      2          7    20001014       -3.192853    1.125879    0.162991
      3          6    20001002       -4.376797    0.934851   -0.464619
      4          8    20001024       -4.935319    1.808308   -1.068665
      5          6    90000001       -4.915400   -0.506990   -0.484324
      6          6    90000002       -5.534840   -0.804659   -1.853822
      7          6    90000002       -3.776782   -1.507373   -0.146117
      8          6    90000002       -2.540921   -1.569819   -1.061749
      9          6    90000002       -1.428919   -0.526561   -0.834361
     10          6    20001004       -0.867565   -0.522182    0.568186
     11          6    20001004        0.241007   -1.105201    0.994701
     12          6    90000002        1.219655   -1.920876    0.184346
     13          6    90000002        2.507890   -1.169433   -0.196902
     14          6    90000002        3.313516   -0.715741    1.027862
     15          6    90000002        4.718693   -0.104701    0.789632
     16          6    90000002        5.279113    0.319088    2.157032
     17          7    20001014        5.577376   -1.128272    0.209548
     18          6    20001002        6.832473   -0.835470   -0.239959
     19          6    20001001        7.445598   -1.880009   -1.144294
     20          8    20001024        7.411668    0.172460    0.056267
     21          6    20001002        4.586370    1.050335   -0.228754
     22          8    20001024        4.572894    0.819894   -1.408010
     23          7    20001014        4.385802    2.292527    0.261869
     24          6    20001001        4.304210    3.426946   -0.635147
     25          7    20001014       -5.908144   -0.698150    0.583079
     26          6    20001002       -7.065863    0.016413    0.676682
     27          6    20001001       -8.103605   -0.561109    1.616723
     28          8    20001024       -7.248253    1.034037    0.070617
     29          1    20001035       -3.314929    3.038192    1.039540
     30          1    20001035       -2.648871    2.987456   -0.585103
     31          1    20001035       -1.688117    2.406074    0.769312
     32          1    20001029       -2.924178    0.435584    0.824498
     33          1    20001034       -4.821376   -0.646989   -2.648204
     34          1    20001034       -5.873233   -1.836167   -1.880672
     35          1    20001034       -6.377059   -0.153063   -2.035532
     36          1    20001034       -4.237742   -2.492485   -0.163249
     37          1    20001034       -3.461896   -1.336832    0.878599
     38          1    20001034       -2.100619   -2.552071   -0.917066
     39          1    20001034       -2.847231   -1.527405   -2.101820
     40          1    20001034       -1.794836    0.463847   -1.072185
     41          1    20001034       -0.642788   -0.735233   -1.551499
     42          1    20001033       -1.446932    0.027337    1.292393
     43          1    20001033        0.488590   -0.989857    2.038329
     44          1    20001034        0.751150   -2.274265   -0.726194
     45          1    20001034        1.483799   -2.810746    0.754392
     46          1    20001034        3.100090   -1.827292   -0.826897
     47          1    20001034        2.255126   -0.316015   -0.812221
     48          1    20001034        3.452778   -1.558973    1.700988
     49          1    20001034        2.733303    0.021609    1.570098
     50          1    20001034        5.430511   -0.568569    2.760128
     51          1    20001034        4.580022    0.957061    2.687731
     52          1    20001034        6.227472    0.825913    2.059643
     53          1    20001029        5.105959   -1.835782   -0.306115
     54          1    20001034        8.518601   -1.762864   -1.142656
     55          1    20001034        7.079428   -1.721194   -2.154157
     56          1    20001034        7.184832   -2.887725   -0.839513
     57          1    20001029        4.640176    2.475530    1.203737
     58          1    20001035        4.022318    4.300695   -0.062415
     59          1    20001035        3.553173    3.242514   -1.389174
     60          1    20001035        5.250116    3.615993   -1.132416
     61          1    20001029       -5.905067   -1.594467    1.016846
     62          1    20001034       -8.777173    0.227124    1.919984
     63          1    20001034       -7.655763   -1.016518    2.492845
     64          1    20001034       -8.674502   -1.321310    1.093301
 ---------------------------------------------------------------------

 SCF Done:  E(RHF) =  -1295.57155437     A.U. after   14 cycles

 The electronic state is 1-A.
 Alpha  occ. eigenvalues --  -20.52404 -20.52044 -20.51472 -20.51033 -15.58568
 Alpha  occ. eigenvalues --  -15.58335 -15.57934 -15.57373 -11.34612 -11.34257
 Alpha  occ. eigenvalues --  -11.34127 -11.33163 -11.29043 -11.28847 -11.25382
 Alpha  occ. eigenvalues --  -11.25365 -11.24345 -11.24005 -11.23680 -11.23496
 Alpha  occ. eigenvalues --  -11.23415 -11.23415 -11.23148 -11.23078 -11.22826
 Alpha  occ. eigenvalues --  -11.22215 -11.22012 -11.20944  -1.39770  -1.38958
 Alpha  occ. eigenvalues --   -1.38496  -1.37592  -1.24369  -1.23969  -1.23046
 Alpha  occ. eigenvalues --   -1.22904  -1.11619  -1.09640  -1.07731  -1.04634
 Alpha  occ. eigenvalues --   -1.01379  -0.99256  -0.98783  -0.95895  -0.95658
 Alpha  occ. eigenvalues --   -0.95038  -0.92854  -0.87486  -0.86186  -0.84116
 Alpha  occ. eigenvalues --   -0.81777  -0.79902  -0.78633  -0.77711  -0.77300
 Alpha  occ. eigenvalues --   -0.72706  -0.71775  -0.70718  -0.68462  -0.68194
 Alpha  occ. eigenvalues --   -0.67338  -0.65677  -0.64817  -0.64198  -0.64009
 Alpha  occ. eigenvalues --   -0.62681  -0.62244  -0.62136  -0.61812  -0.61558
 Alpha  occ. eigenvalues --   -0.60669  -0.59829  -0.59347  -0.59047  -0.58635
 Alpha  occ. eigenvalues --   -0.57824  -0.57568  -0.56952  -0.56708  -0.56430
 Alpha  occ. eigenvalues --   -0.55805  -0.55323  -0.55177  -0.54913  -0.54459
 Alpha  occ. eigenvalues --   -0.53642  -0.53342  -0.52739  -0.52148  -0.51431
 Alpha  occ. eigenvalues --   -0.50347  -0.50225  -0.50144  -0.49843  -0.49171
 Alpha  occ. eigenvalues --   -0.48747  -0.47458  -0.47062  -0.45669  -0.42319
 Alpha  occ. eigenvalues --   -0.41941  -0.41430  -0.39554  -0.39258  -0.38724
 Alpha  occ. eigenvalues --   -0.38113  -0.37350  -0.35641
 Alpha virt. eigenvalues --    0.15834   0.19230   0.19518   0.20481   0.20755
 Alpha virt. eigenvalues --    0.21162   0.21399   0.22153   0.22880   0.23532
 Alpha virt. eigenvalues --    0.25147   0.25300   0.25909   0.26791   0.27356

 Mulliken atomic charges:
              1
     1  C   -0.282177
     2  N   -0.844690
     3  C    0.814994
     4  O   -0.578636
     5  C    0.109297
     6  C   -0.476175
     7  C   -0.371096
     8  C   -0.305525
     9  C   -0.361490
    10  C   -0.184035
    11  C   -0.176444
    12  C   -0.355392
    13  C   -0.311932
    14  C   -0.329731
    15  C    0.091314
    16  C   -0.509725
    17  N   -0.787489
    18  C    0.767204
    19  C   -0.595854
    20  O   -0.613118
    21  C    0.820057
    22  O   -0.639100
    23  N   -0.806636
    24  C   -0.275904
    25  N   -0.822073
    26  C    0.740407
    27  C   -0.588740
    28  O   -0.565427
    29  H    0.184572
    30  H    0.205278
    31  H    0.168063
    32  H    0.394373
    33  H    0.169642
    34  H    0.146010
    35  H    0.236806
    36  H    0.170517
    37  H    0.168891
    38  H    0.169621
    39  H    0.177746
    40  H    0.232474
    41  H    0.175405
    42  H    0.150886
    43  H    0.175743
    44  H    0.180783
    45  H    0.164273
    46  H    0.154442
    47  H    0.199631
    48  H    0.174648
    49  H    0.183157
    50  H    0.184354
    51  H    0.148204
    52  H    0.227974
    53  H    0.389496
    54  H    0.212222
    55  H    0.209559
    56  H    0.176555
    57  H    0.395924
    58  H    0.165732
    59  H    0.198410
    60  H    0.186491
    61  H    0.376573
    62  H    0.217358
    63  H    0.172959
    64  H    0.193339
 Sum of Mulliken atomic charges =   0.00000

 Dipole moment (field-independent basis, Debye):
    X=              0.7002    Y=             -5.9265    Z=              4.8751  Tot=              7.7058
 Quadrupole moment (field-independent basis, Debye-Ang):
   XX=           -219.9111   YY=           -161.3914   ZZ=           -169.8849
   XY=             24.4517   XZ=            -11.0643   YZ=              8.9894

 Normal termination of Gaussian 09 at Thu Dec  5 16:21:28 2019.
