 Gaussian 09, Revision A.02,
 Gaussian 09:  EM64L-G09RevA.02 11-Jun-2009

 ---------------------------------
 #SP HF/6-31G* Geom=(ModRedundant)
 ---------------------------------

 ------------
 paramfit run
 ------------
 Symbolic Z-matrix:
 Charge =  0 Multiplicity = 1

                         Standard orientation:
 ---------------------------------------------------------------------
 Center     Atomic      Atomic             Coordinates (Angstroms)
 Number     Number       Type             X           Y           Z
 ---------------------------------------------------------------------
      1          6    20001001       -4.114751    3.211498   -0.803872
      2          7    20001014       -4.682697    1.887623   -0.952328
      3          6    20001002       -4.316681    0.897233   -0.105411
      4          8    20001024       -3.710414    1.106496    0.908687
      5          6    90000001       -4.837659   -0.512861   -0.436473
      6          6    90000002       -5.474627   -0.510448   -1.830069
      7          6    90000002       -3.681630   -1.545453   -0.341861
      8          6    90000002       -2.459502   -1.385081   -1.263989
      9          6    90000002       -1.357077   -0.400646   -0.825599
     10          6    20001004       -0.774043   -0.697274    0.536150
     11          6    20001004        0.348162   -1.342807    0.809467
     12          6    90000002        1.324079   -1.944216   -0.173206
     13          6    90000002        2.596831   -1.107278   -0.395031
     14          6    90000002        3.415764   -0.922703    0.889569
     15          6    90000002        4.809398   -0.252447    0.774738
     16          6    90000002        5.385767   -0.132318    2.194886
     17          7    20001014        5.671532   -1.109286   -0.027810
     18          6    20001002        6.915759   -0.705068   -0.417120
     19          6    20001001        7.527592   -1.514586   -1.537454
     20          8    20001024        7.486992    0.221464    0.087235
     21          6    20001002        4.646960    1.096703    0.038439
     22          8    20001024        4.617968    1.132076   -1.162325
     23          7    20001014        4.438715    2.196692    0.793846
     24          6    20001001        4.329141    3.499731    0.170721
     25          7    20001014       -5.811218   -0.950286    0.574601
     26          6    20001002       -6.976083   -0.292042    0.838183
     27          6    20001001       -7.991840   -1.078836    1.640253
     28          8    20001024       -7.180459    0.831311    0.474248
     29          1    20001035       -3.050719    3.219329   -1.010570
     30          1    20001035       -4.271003    3.564640    0.204889
     31          1    20001035       -4.615849    3.881640   -1.491014
     32          1    20001029       -4.963551    1.611462   -1.863998
     33          1    20001034       -4.775625   -0.170276   -2.578810
     34          1    20001034       -5.800616   -1.515702   -2.079934
     35          1    20001034       -6.327563    0.152052   -1.852816
     36          1    20001034       -4.130586   -2.509506   -0.570472
     37          1    20001034       -3.352954   -1.600456    0.691206
     38          1    20001034       -2.004889   -2.368096   -1.345397
     39          1    20001034       -2.782475   -1.118880   -2.265087
     40          1    20001034       -1.738870    0.612037   -0.834148
     41          1    20001034       -0.579690   -0.433659   -1.580856
     42          1    20001033       -1.348810   -0.330217    1.371032
     43          1    20001033        0.610524   -1.456856    1.849620
     44          1    20001034        0.845853   -2.095112   -1.133411
     45          1    20001034        1.608052   -2.933764    0.182811
     46          1    20001034        3.187235   -1.600587   -1.162132
     47          1    20001034        2.323982   -0.143110   -0.803394
     48          1    20001034        3.575908   -1.891458    1.357970
     49          1    20001034        2.834995   -0.332318    1.588499
     50          1    20001034        5.557502   -1.128751    2.585027
     51          1    20001034        4.687191    0.361857    2.862091
     52          1    20001034        6.326154    0.398139    2.200071
     53          1    20001029        5.200923   -1.692735   -0.681131
     54          1    20001034        8.598960   -1.384077   -1.523344
     55          1    20001034        7.143802   -1.142466   -2.482629
     56          1    20001034        7.284082   -2.568639   -1.459622
     57          1    20001029        4.705445    2.171192    1.749625
     58          1    20001035        4.045424    4.221026    0.925810
     59          1    20001035        3.568789    3.474676   -0.596002
     60          1    20001035        5.264778    3.808520   -0.284238
     61          1    20001029       -5.790304   -1.920085    0.799546
     62          1    20001034       -8.670297   -0.387524    2.118539
     63          1    20001034       -7.524809   -1.709409    2.388457
     64          1    20001034       -8.561377   -1.713499    0.968963
 ---------------------------------------------------------------------

 SCF Done:  E(RHF) =  -1295.60872940     A.U. after   14 cycles

 The electronic state is 1-A.
 Alpha  occ. eigenvalues --  -20.52360 -20.51964 -20.51659 -20.51506 -15.58682
 Alpha  occ. eigenvalues --  -15.57790 -15.57441 -15.57415 -11.34869 -11.34174
 Alpha  occ. eigenvalues --  -11.33752 -11.33580 -11.29199 -11.28416 -11.24924
 Alpha  occ. eigenvalues --  -11.24850 -11.23527 -11.23381 -11.23189 -11.23019
 Alpha  occ. eigenvalues --  -11.22687 -11.22472 -11.22309 -11.22183 -11.22006
 Alpha  occ. eigenvalues --  -11.21714 -11.21627 -11.21442  -1.39521  -1.39280
 Alpha  occ. eigenvalues --   -1.38381  -1.38006  -1.24172  -1.23437  -1.22521
 Alpha  occ. eigenvalues --   -1.22508  -1.10592  -1.09184  -1.07070  -1.04273
 Alpha  occ. eigenvalues --   -1.00793  -0.99514  -0.98748  -0.95607  -0.94663
 Alpha  occ. eigenvalues --   -0.94289  -0.92319  -0.87782  -0.85694  -0.82844
 Alpha  occ. eigenvalues --   -0.81052  -0.79377  -0.78232  -0.76908  -0.76766
 Alpha  occ. eigenvalues --   -0.71684  -0.71212  -0.70929  -0.68459  -0.67810
 Alpha  occ. eigenvalues --   -0.66449  -0.65287  -0.64338  -0.64121  -0.63537
 Alpha  occ. eigenvalues --   -0.62437  -0.61989  -0.61770  -0.61368  -0.61035
 Alpha  occ. eigenvalues --   -0.60597  -0.60001  -0.59150  -0.58587  -0.58093
 Alpha  occ. eigenvalues --   -0.57648  -0.57225  -0.56684  -0.56309  -0.56128
 Alpha  occ. eigenvalues --   -0.55469  -0.55332  -0.54790  -0.54613  -0.54038
 Alpha  occ. eigenvalues --   -0.53846  -0.52969  -0.52479  -0.51880  -0.51477
 Alpha  occ. eigenvalues --   -0.51225  -0.50308  -0.49693  -0.48969  -0.48409
 Alpha  occ. eigenvalues --   -0.48161  -0.46903  -0.46201  -0.44243  -0.42052
 Alpha  occ. eigenvalues --   -0.41406  -0.41223  -0.40976  -0.38736  -0.38717
 Alpha  occ. eigenvalues --   -0.38182  -0.37873  -0.34104
 Alpha virt. eigenvalues --    0.17375   0.19274   0.19760   0.20096   0.20861
 Alpha virt. eigenvalues --    0.21698   0.22165   0.23114   0.23374   0.24438
 Alpha virt. eigenvalues --    0.25189   0.25407   0.26347   0.27131   0.27391

 Mulliken atomic charges:
              1
     1  C   -0.280417
     2  N   -0.775097
     3  C    0.818348
     4  O   -0.628493
     5  C    0.126911
     6  C   -0.540442
     7  C   -0.338880
     8  C   -0.322978
     9  C   -0.358694
    10  C   -0.182758
    11  C   -0.179858
    12  C   -0.352674
    13  C   -0.309260
    14  C   -0.329517
    15  C    0.090502
    16  C   -0.510014
    17  N   -0.787403
    18  C    0.767385
    19  C   -0.595614
    20  O   -0.613955
    21  C    0.820759
    22  O   -0.641119
    23  N   -0.805098
    24  C   -0.274893
    25  N   -0.800661
    26  C    0.756175
    27  C   -0.590236
    28  O   -0.598692
    29  H    0.164745
    30  H    0.211480
    31  H    0.169735
    32  H    0.391562
    33  H    0.162048
    34  H    0.173144
    35  H    0.222050
    36  H    0.154298
    37  H    0.212346
    38  H    0.170966
    39  H    0.159884
    40  H    0.185074
    41  H    0.171029
    42  H    0.214326
    43  H    0.172920
    44  H    0.172127
    45  H    0.160039
    46  H    0.149001
    47  H    0.196806
    48  H    0.173530
    49  H    0.188045
    50  H    0.183704
    51  H    0.150132
    52  H    0.225955
    53  H    0.389525
    54  H    0.210984
    55  H    0.208574
    56  H    0.176353
    57  H    0.396086
    58  H    0.166012
    59  H    0.197471
    60  H    0.184201
    61  H    0.380501
    62  H    0.217927
    63  H    0.182829
    64  H    0.191264
 Sum of Mulliken atomic charges =   0.00000

 Dipole moment (field-independent basis, Debye):
    X=             -2.9031    Y=             -4.6867    Z=             -1.2181  Tot=              5.6460
 Quadrupole moment (field-independent basis, Debye-Ang):
   XX=           -195.8632   YY=           -156.1420   ZZ=           -165.2007
   XY=             11.5124   XZ=             14.1032   YZ=              0.2518

 Normal termination of Gaussian 09 at Thu Dec  5 16:36:42 2019.
