 Gaussian 09, Revision A.02,
 Gaussian 09:  EM64L-G09RevA.02 11-Jun-2009

 ---------------------------------
 #SP HF/6-31G* Geom=(ModRedundant)
 ---------------------------------

 ------------
 paramfit run
 ------------
 Symbolic Z-matrix:
 Charge =  0 Multiplicity = 1

                         Standard orientation:
 ---------------------------------------------------------------------
 Center     Atomic      Atomic             Coordinates (Angstroms)
 Number     Number       Type             X           Y           Z
 ---------------------------------------------------------------------
      1          6    20001001       -3.913332    3.174424   -0.857749
      2          7    20001014       -4.508572    1.865861   -1.032670
      3          6    20001002       -4.324852    0.909579   -0.092521
      4          8    20001024       -3.877591    1.150720    0.994473
      5          6    90000001       -4.848743   -0.496476   -0.435934
      6          6    90000002       -5.485738   -0.480508   -1.829428
      7          6    90000002       -3.694843   -1.532240   -0.350445
      8          6    90000002       -2.472409   -1.366294   -1.271179
      9          6    90000002       -1.367947   -0.388022   -0.824206
     10          6    20001004       -0.785492   -0.697801    0.534861
     11          6    20001004        0.335384   -1.348022    0.802449
     12          6    90000002        1.310038   -1.942786   -0.185509
     13          6    90000002        2.584506   -1.106559   -0.400028
     14          6    90000002        3.403849   -0.934962    0.886109
     15          6    90000002        4.798860   -0.266598    0.777111
     16          6    90000002        5.375508   -0.160136    2.198234
     17          7    20001014        5.659205   -1.118131   -0.032969
     18          6    20001002        6.904254   -0.713073   -0.418766
     19          6    20001001        7.514389   -1.513979   -1.546192
     20          8    20001024        7.477408    0.207813    0.093685
     21          6    20001002        4.639185    1.089299    0.052698
     22          8    20001024        4.610238    1.135278   -1.147709
     23          7    20001014        4.433226    2.183037    0.817746
     24          6    20001001        4.326325    3.491723    0.206095
     25          7    20001014       -5.823178   -0.940757    0.571301
     26          6    20001002       -6.986677   -0.282454    0.840702
     27          6    20001001       -8.004035   -1.074167    1.635873
     28          8    20001024       -7.188745    0.844472    0.486658
     29          1    20001035       -2.830717    3.132808   -0.891844
     30          1    20001035       -4.211094    3.586369    0.095332
     31          1    20001035       -4.269652    3.824535   -1.646892
     32          1    20001029       -4.653935    1.551694   -1.963505
     33          1    20001034       -4.786055   -0.135215   -2.575181
     34          1    20001034       -5.813806   -1.482855   -2.088099
     35          1    20001034       -6.337308    0.183923   -1.846319
     36          1    20001034       -4.145792   -2.493319   -0.587496
     37          1    20001034       -3.366257   -1.596993    0.682085
     38          1    20001034       -2.019827   -2.349491   -1.361237
     39          1    20001034       -2.794857   -1.090644   -2.269888
     40          1    20001034       -1.747652    0.625481   -0.823844
     41          1    20001034       -0.590648   -0.416002   -1.579757
     42          1    20001033       -1.359481   -0.336908    1.372958
     43          1    20001033        0.597536   -1.471744    1.841549
     44          1    20001034        0.831478   -2.084257   -1.146983
     45          1    20001034        1.591977   -2.936007    0.161790
     46          1    20001034        3.173873   -1.594326   -1.171457
     47          1    20001034        2.313635   -0.138279   -0.799895
     48          1    20001034        3.562007   -1.908123    1.345976
     49          1    20001034        2.824315   -0.349544    1.590222
     50          1    20001034        5.545198   -1.160310    2.579601
     51          1    20001034        4.677969    0.329599    2.869785
     52          1    20001034        6.316987    0.368314    2.208040
     53          1    20001029        5.187380   -1.694847   -0.691369
     54          1    20001034        8.586023   -1.385809   -1.530981
     55          1    20001034        7.131345   -1.132781   -2.488047
     56          1    20001034        7.268709   -2.568171   -1.477612
     57          1    20001029        4.699927    2.148594    1.773254
     58          1    20001035        4.044114    4.206941    0.967503
     59          1    20001035        3.565905    3.474970   -0.560786
     60          1    20001035        5.262585    3.802566   -0.246173
     61          1    20001029       -5.804257   -1.912535    0.787717
     62          1    20001034       -8.681052   -0.385686    2.120242
     63          1    20001034       -7.538287   -1.712250    2.378490
     64          1    20001034       -8.574896   -1.701734    0.959059
 ---------------------------------------------------------------------

 SCF Done:  E(RHF) =  -1295.60924326     A.U. after   14 cycles

 The electronic state is 1-A.
 Alpha  occ. eigenvalues --  -20.52245 -20.52046 -20.51609 -20.51489 -15.58520
 Alpha  occ. eigenvalues --  -15.57888 -15.57617 -15.57510 -11.34717 -11.34256
 Alpha  occ. eigenvalues --  -11.33697 -11.33682 -11.29168 -11.28526 -11.25012
 Alpha  occ. eigenvalues --  -11.24919 -11.23711 -11.23331 -11.23269 -11.23261
 Alpha  occ. eigenvalues --  -11.22607 -11.22543 -11.22528 -11.22412 -11.22362
 Alpha  occ. eigenvalues --  -11.22034 -11.21781 -11.21719  -1.39377  -1.39372
 Alpha  occ. eigenvalues --   -1.38195  -1.38100  -1.24020  -1.23534  -1.22633
 Alpha  occ. eigenvalues --   -1.22605  -1.10832  -1.09309  -1.07199  -1.04410
 Alpha  occ. eigenvalues --   -1.00928  -0.99441  -0.98832  -0.95750  -0.94753
 Alpha  occ. eigenvalues --   -0.94335  -0.92478  -0.87913  -0.85820  -0.82944
 Alpha  occ. eigenvalues --   -0.81157  -0.79472  -0.78272  -0.77023  -0.76863
 Alpha  occ. eigenvalues --   -0.71866  -0.71248  -0.71013  -0.68405  -0.67906
 Alpha  occ. eigenvalues --   -0.66662  -0.65302  -0.64402  -0.63973  -0.63656
 Alpha  occ. eigenvalues --   -0.62324  -0.62069  -0.61909  -0.61460  -0.61134
 Alpha  occ. eigenvalues --   -0.60810  -0.60055  -0.59226  -0.58680  -0.58148
 Alpha  occ. eigenvalues --   -0.57707  -0.57224  -0.56661  -0.56387  -0.56200
 Alpha  occ. eigenvalues --   -0.55510  -0.55475  -0.54891  -0.54719  -0.54076
 Alpha  occ. eigenvalues --   -0.53915  -0.53071  -0.52631  -0.51999  -0.51574
 Alpha  occ. eigenvalues --   -0.51043  -0.50430  -0.49786  -0.49183  -0.48593
 Alpha  occ. eigenvalues --   -0.48358  -0.47052  -0.46361  -0.44518  -0.41686
 Alpha  occ. eigenvalues --   -0.41506  -0.41061  -0.41019  -0.38832  -0.38750
 Alpha  occ. eigenvalues --   -0.38282  -0.38094  -0.34406
 Alpha virt. eigenvalues --    0.17139   0.19488   0.19664   0.20174   0.20773
 Alpha virt. eigenvalues --    0.21600   0.22039   0.22682   0.23250   0.24383
 Alpha virt. eigenvalues --    0.24841   0.25340   0.26263   0.27028   0.27360

 Mulliken atomic charges:
              1
     1  C   -0.279817
     2  N   -0.786720
     3  C    0.822444
     4  O   -0.624772
     5  C    0.119613
     6  C   -0.527123
     7  C   -0.341243
     8  C   -0.322231
     9  C   -0.362106
    10  C   -0.183438
    11  C   -0.178380
    12  C   -0.353565
    13  C   -0.309484
    14  C   -0.329701
    15  C    0.090553
    16  C   -0.510064
    17  N   -0.787372
    18  C    0.767366
    19  C   -0.595652
    20  O   -0.613763
    21  C    0.820628
    22  O   -0.641105
    23  N   -0.805206
    24  C   -0.274973
    25  N   -0.798750
    26  C    0.759598
    27  C   -0.590130
    28  O   -0.600198
    29  H    0.165338
    30  H    0.213660
    31  H    0.168937
    32  H    0.389702
    33  H    0.152029
    34  H    0.170512
    35  H    0.228591
    36  H    0.156625
    37  H    0.211898
    38  H    0.172310
    39  H    0.160197
    40  H    0.182810
    41  H    0.174014
    42  H    0.211554
    43  H    0.174636
    44  H    0.172314
    45  H    0.161219
    46  H    0.149779
    47  H    0.196673
    48  H    0.173882
    49  H    0.187843
    50  H    0.183886
    51  H    0.150172
    52  H    0.226267
    53  H    0.389434
    54  H    0.211234
    55  H    0.208585
    56  H    0.176406
    57  H    0.396244
    58  H    0.166264
    59  H    0.197181
    60  H    0.184522
    61  H    0.379519
    62  H    0.218051
    63  H    0.182666
    64  H    0.190636
 Sum of Mulliken atomic charges =   0.00000

 Dipole moment (field-independent basis, Debye):
    X=             -2.2016    Y=             -4.9187    Z=             -1.4135  Tot=              5.5712
 Quadrupole moment (field-independent basis, Debye-Ang):
   XX=           -200.2891   YY=           -156.6800   ZZ=           -165.3714
   XY=             13.2960   XZ=             14.5370   YZ=              0.0897

 Normal termination of Gaussian 09 at Thu Dec  5 16:31:30 2019.
