 Gaussian 09, Revision A.02,
 Gaussian 09:  EM64L-G09RevA.02 11-Jun-2009

 ---------------------------------
 #SP HF/6-31G* Geom=(ModRedundant)
 ---------------------------------

 ------------
 paramfit run
 ------------
 Symbolic Z-matrix:
 Charge =  0 Multiplicity = 1

                         Standard orientation:
 ---------------------------------------------------------------------
 Center     Atomic      Atomic             Coordinates (Angstroms)
 Number     Number       Type             X           Y           Z
 ---------------------------------------------------------------------
      1          6    20001001       -3.284195    2.961860   -0.943323
      2          7    20001014       -3.938763    1.689835   -1.168577
      3          6    20001002       -4.350550    0.946654   -0.114906
      4          8    20001024       -4.404834    1.383782    1.001212
      5          6    90000001       -4.882522   -0.461289   -0.437532
      6          6    90000002       -5.515956   -0.463215   -1.832738
      7          6    90000002       -3.735447   -1.502852   -0.332812
      8          6    90000002       -2.509711   -1.359137   -1.252893
      9          6    90000002       -1.400158   -0.380956   -0.818507
     10          6    20001004       -0.823047   -0.672996    0.546752
     11          6    20001004        0.293009   -1.325998    0.827405
     12          6    90000002        1.266299   -1.942375   -0.148577
     13          6    90000002        2.546586   -1.117696   -0.372929
     14          6    90000002        3.363821   -0.931073    0.912454
     15          6    90000002        4.763319   -0.273335    0.796557
     16          6    90000002        5.337118   -0.148183    2.217310
     17          7    20001014        5.620232   -1.142924    0.002172
     18          6    20001002        6.868781   -0.751861   -0.386739
     19          6    20001001        7.476596   -1.574239   -1.499870
     20          8    20001024        7.446511    0.173331    0.112652
     21          6    20001002        4.614061    1.071983    0.050523
     22          8    20001024        4.588374    1.099257   -1.150529
     23          7    20001014        4.413173    2.178898    0.797759
     24          6    20001001        4.316107    3.478451    0.165349
     25          7    20001014       -5.862250   -0.883507    0.574050
     26          6    20001002       -7.022201   -0.213709    0.830083
     27          6    20001001       -8.046535   -0.986373    1.634976
     28          8    20001024       -7.216223    0.908763    0.457857
     29          1    20001035       -2.322968    2.840267   -0.457312
     30          1    20001035       -3.906836    3.587520   -0.320756
     31          1    20001035       -3.140766    3.450762   -1.898706
     32          1    20001029       -3.700370    1.194399   -1.995618
     33          1    20001034       -4.812250   -0.134123   -2.582023
     34          1    20001034       -5.849751   -1.467413   -2.076471
     35          1    20001034       -6.363240    0.206236   -1.862257
     36          1    20001034       -4.191911   -2.464673   -0.555893
     37          1    20001034       -3.409833   -1.553432    0.701450
     38          1    20001034       -2.063168   -2.346469   -1.326329
     39          1    20001034       -2.827929   -1.097197   -2.256636
     40          1    20001034       -1.773409    0.634808   -0.835045
     41          1    20001034       -0.621188   -0.425727   -1.571524
     42          1    20001033       -1.396798   -0.295346    1.377598
     43          1    20001033        0.551799   -1.435017    1.868992
     44          1    20001034        0.789227   -2.095923   -1.108937
     45          1    20001034        1.541057   -2.931772    0.215009
     46          1    20001034        3.134744   -1.621249   -1.135082
     47          1    20001034        2.282867   -0.154133   -0.788656
     48          1    20001034        3.514651   -1.897861    1.387961
     49          1    20001034        2.786284   -0.331003    1.605791
     50          1    20001034        5.499502   -1.143286    2.614780
     51          1    20001034        4.641050    0.356453    2.879288
     52          1    20001034        6.281912    0.374397    2.221233
     53          1    20001029        5.146377   -1.726930   -0.648297
     54          1    20001034        8.548983   -1.452620   -1.483919
     55          1    20001034        7.098312   -1.205488   -2.448580
     56          1    20001034        7.224048   -2.625648   -1.415367
     57          1    20001029        4.677285    2.157801    1.754373
     58          1    20001035        4.036568    4.207324    0.914698
     59          1    20001035        3.557494    3.454445   -0.603127
     60          1    20001035        5.255440    3.776219   -0.289338
     61          1    20001029       -5.850043   -1.851862    0.805756
     62          1    20001034       -8.720357   -0.286094    2.106725
     63          1    20001034       -7.586692   -1.615627    2.388722
     64          1    20001034       -8.619702   -1.620887    0.966640
 ---------------------------------------------------------------------

 SCF Done:  E(RHF) =  -1295.60447319     A.U. after   14 cycles

 The electronic state is 1-A.
 Alpha  occ. eigenvalues --  -20.52265 -20.51888 -20.51481 -20.51283 -15.58157
 Alpha  occ. eigenvalues --  -15.57947 -15.57937 -15.57764 -11.34476 -11.34037
 Alpha  occ. eigenvalues --  -11.33960 -11.33527 -11.29039 -11.28821 -11.25257
 Alpha  occ. eigenvalues --  -11.25209 -11.24188 -11.23929 -11.23705 -11.23094
 Alpha  occ. eigenvalues --  -11.23074 -11.22835 -11.22812 -11.22809 -11.22733
 Alpha  occ. eigenvalues --  -11.22631 -11.22277 -11.21976  -1.39622  -1.38951
 Alpha  occ. eigenvalues --   -1.38350  -1.37610  -1.23794  -1.23564  -1.22874
 Alpha  occ. eigenvalues --   -1.22873  -1.11416  -1.09621  -1.07489  -1.04701
 Alpha  occ. eigenvalues --   -1.01253  -0.99132  -0.98960  -0.96007  -0.95013
 Alpha  occ. eigenvalues --   -0.94677  -0.92863  -0.88076  -0.86103  -0.83149
 Alpha  occ. eigenvalues --   -0.81439  -0.79732  -0.78381  -0.77269  -0.77126
 Alpha  occ. eigenvalues --   -0.72420  -0.71577  -0.70656  -0.68422  -0.67917
 Alpha  occ. eigenvalues --   -0.67244  -0.65334  -0.64735  -0.64037  -0.63245
 Alpha  occ. eigenvalues --   -0.62548  -0.62314  -0.61994  -0.61698  -0.61383
 Alpha  occ. eigenvalues --   -0.61217  -0.60101  -0.59410  -0.58928  -0.58395
 Alpha  occ. eigenvalues --   -0.57800  -0.57275  -0.56807  -0.56657  -0.56353
 Alpha  occ. eigenvalues --   -0.55594  -0.55232  -0.55121  -0.54980  -0.54573
 Alpha  occ. eigenvalues --   -0.53833  -0.53349  -0.52935  -0.52417  -0.51871
 Alpha  occ. eigenvalues --   -0.50922  -0.50105  -0.49936  -0.49675  -0.48982
 Alpha  occ. eigenvalues --   -0.48844  -0.47242  -0.46767  -0.45191  -0.41776
 Alpha  occ. eigenvalues --   -0.41287  -0.41002  -0.40456  -0.39092  -0.38689
 Alpha  occ. eigenvalues --   -0.38553  -0.38049  -0.35140
 Alpha virt. eigenvalues --    0.16576   0.19404   0.19872   0.20318   0.21011
 Alpha virt. eigenvalues --    0.21338   0.21688   0.22166   0.22924   0.24011
 Alpha virt. eigenvalues --    0.24159   0.25155   0.25917   0.26746   0.27258

 Mulliken atomic charges:
              1
     1  C   -0.281730
     2  N   -0.790922
     3  C    0.809175
     4  O   -0.603967
     5  C    0.094609
     6  C   -0.473101
     7  C   -0.338024
     8  C   -0.327386
     9  C   -0.369532
    10  C   -0.181436
    11  C   -0.174805
    12  C   -0.355410
    13  C   -0.310092
    14  C   -0.330024
    15  C    0.090719
    16  C   -0.510125
    17  N   -0.787308
    18  C    0.767300
    19  C   -0.595751
    20  O   -0.613305
    21  C    0.820305
    22  O   -0.640916
    23  N   -0.805611
    24  C   -0.275197
    25  N   -0.800453
    26  C    0.769792
    27  C   -0.589429
    28  O   -0.598514
    29  H    0.165293
    30  H    0.217844
    31  H    0.168978
    32  H    0.383036
    33  H    0.138767
    34  H    0.159295
    35  H    0.227112
    36  H    0.162518
    37  H    0.205303
    38  H    0.177175
    39  H    0.155813
    40  H    0.184722
    41  H    0.177773
    42  H    0.198028
    43  H    0.177702
    44  H    0.173314
    45  H    0.163833
    46  H    0.151765
    47  H    0.196375
    48  H    0.174732
    49  H    0.186883
    50  H    0.184358
    51  H    0.150001
    52  H    0.227096
    53  H    0.389264
    54  H    0.211879
    55  H    0.208679
    56  H    0.176555
    57  H    0.396566
    58  H    0.166719
    59  H    0.196515
    60  H    0.185472
    61  H    0.376107
    62  H    0.217687
    63  H    0.179787
    64  H    0.188191
 Sum of Mulliken atomic charges =   0.00000

 Dipole moment (field-independent basis, Debye):
    X=             -0.2468    Y=             -5.5952    Z=             -1.1614  Tot=              5.7198
 Quadrupole moment (field-independent basis, Debye-Ang):
   XX=           -213.3400   YY=           -158.8560   ZZ=           -166.2557
   XY=             18.7073   XZ=             13.1952   YZ=              0.4431

 Normal termination of Gaussian 09 at Thu Dec  5 16:16:00 2019.
