 Gaussian 09, Revision A.02,
 Gaussian 09:  EM64L-G09RevA.02 11-Jun-2009

 ---------------------------------
 #SP HF/6-31G* Geom=(ModRedundant)
 ---------------------------------

 ------------
 paramfit run
 ------------
 Symbolic Z-matrix:
 Charge =  0 Multiplicity = 1

                         Standard orientation:
 ---------------------------------------------------------------------
 Center     Atomic      Atomic             Coordinates (Angstroms)
 Number     Number       Type             X           Y           Z
 ---------------------------------------------------------------------
      1          6    20001001       -3.384307    2.748824    0.617614
      2          7    20001014       -3.771997    1.355034    0.552114
      3          6    20001002       -4.344016    0.865651   -0.572790
      4          8    20001024       -4.348598    1.469477   -1.609669
      5          6    90000001       -4.875884   -0.576858   -0.497492
      6          6    90000002       -5.486872   -0.969532   -1.846692
      7          6    90000002       -3.734446   -1.546446   -0.086861
      8          6    90000002       -2.493600   -1.664592   -0.990176
      9          6    90000002       -1.387590   -0.602873   -0.828524
     10          6    20001004       -0.833510   -0.500865    0.573214
     11          6    20001004        0.275511   -1.048225    1.043562
     12          6    90000002        1.262065   -1.912012    0.295005
     13          6    90000002        2.548787   -1.181736   -0.129976
     14          6    90000002        3.345987   -0.642270    1.065165
     15          6    90000002        4.749555   -0.041825    0.792938
     16          6    90000002        5.300958    0.476246    2.131224
     17          7    20001014        5.615913   -1.098044    0.287608
     18          6    20001002        6.871956   -0.830135   -0.174600
     19          6    20001001        7.494530   -1.930418   -1.003205
     20          8    20001024        7.444979    0.198369    0.055543
     21          6    20001002        4.617191    1.041013   -0.301899
     22          8    20001024        4.610861    0.731268   -1.462911
     23          7    20001014        4.408391    2.312543    0.102568
     24          6    20001001        4.326222    3.383271   -0.869539
     25          7    20001014       -5.873238   -0.700269    0.575582
     26          6    20001002       -7.034692    0.013271    0.615013
     27          6    20001001       -8.074612   -0.504450    1.586945
     28          8    20001024       -7.218621    0.986658   -0.059397
     29          1    20001035       -4.243777    3.408469    0.583988
     30          1    20001035       -2.736311    2.986826   -0.213157
     31          1    20001035       -2.844385    2.914377    1.541427
     32          1    20001029       -4.016632    0.909138    1.405118
     33          1    20001034       -4.770047   -0.862441   -2.646459
     34          1    20001034       -5.820382   -2.002149   -1.805318
     35          1    20001034       -6.331124   -0.335880   -2.076151
     36          1    20001034       -4.190784   -2.532721   -0.039525
     37          1    20001034       -3.425641   -1.305431    0.925479
     38          1    20001034       -2.049546   -2.632625   -0.777230
     39          1    20001034       -2.794728   -1.694139   -2.032205
     40          1    20001034       -1.756817    0.367364   -1.134587
     41          1    20001034       -0.596816   -0.855697   -1.526084
     42          1    20001033       -1.419125    0.093521    1.255764
     43          1    20001033        0.517170   -0.861332    2.078179
     44          1    20001034        0.799893   -2.328488   -0.591793
     45          1    20001034        1.527345   -2.759971    0.925232
     46          1    20001034        3.147245   -1.877776   -0.711139
     47          1    20001034        2.295287   -0.373151   -0.802851
     48          1    20001034        3.485642   -1.437342    1.794474
     49          1    20001034        2.759604    0.127198    1.553449
     50          1    20001034        5.453313   -0.367825    2.793729
     51          1    20001034        4.596213    1.145201    2.614148
     52          1    20001034        6.247469    0.979992    2.004355
     53          1    20001029        5.150417   -1.841129   -0.181274
     54          1    20001034        8.566962   -1.808141   -1.004303
     55          1    20001034        7.132854   -1.842083   -2.023260
     56          1    20001034        7.236823   -2.916482   -0.632200
     57          1    20001029        4.657055    2.560089    1.031113
     58          1    20001035        4.037370    4.292359   -0.358615
     59          1    20001035        3.579944    3.144557   -1.612984
     60          1    20001035        5.273806    3.542910   -1.373876
     61          1    20001029       -5.868284   -1.565166    1.069015
     62          1    20001034       -8.753348    0.299161    1.832911
     63          1    20001034       -7.629212   -0.897339    2.494032
     64          1    20001034       -8.639303   -1.301122    1.113406
 ---------------------------------------------------------------------

 SCF Done:  E(RHF) =  -1295.61767173     A.U. after   14 cycles

 The electronic state is 1-A.
 Alpha  occ. eigenvalues --  -20.53138 -20.52145 -20.51812 -20.51711 -15.59371
 Alpha  occ. eigenvalues --  -15.58016 -15.57816 -15.57634 -11.35551 -11.34353
 Alpha  occ. eigenvalues --  -11.33797 -11.33770 -11.28935 -11.28695 -11.25178
 Alpha  occ. eigenvalues --  -11.25086 -11.24119 -11.24039 -11.23557 -11.22987
 Alpha  occ. eigenvalues --  -11.22767 -11.22601 -11.22536 -11.22506 -11.22295
 Alpha  occ. eigenvalues --  -11.22094 -11.21922 -11.20649  -1.40100  -1.39475
 Alpha  occ. eigenvalues --   -1.38556  -1.38199  -1.25106  -1.23662  -1.22727
 Alpha  occ. eigenvalues --   -1.22412  -1.10989  -1.09374  -1.07295  -1.04315
 Alpha  occ. eigenvalues --   -1.01225  -0.99256  -0.98798  -0.95726  -0.95248
 Alpha  occ. eigenvalues --   -0.94691  -0.92325  -0.87309  -0.85845  -0.83070
 Alpha  occ. eigenvalues --   -0.81425  -0.79602  -0.78764  -0.77252  -0.76989
 Alpha  occ. eigenvalues --   -0.72083  -0.71366  -0.71022  -0.68708  -0.68111
 Alpha  occ. eigenvalues --   -0.66968  -0.65791  -0.64651  -0.64004  -0.63828
 Alpha  occ. eigenvalues --   -0.62596  -0.62401  -0.61830  -0.61519  -0.61247
 Alpha  occ. eigenvalues --   -0.60847  -0.59907  -0.59402  -0.58809  -0.58336
 Alpha  occ. eigenvalues --   -0.58274  -0.57869  -0.56550  -0.56533  -0.56324
 Alpha  occ. eigenvalues --   -0.55650  -0.55000  -0.54873  -0.54745  -0.54116
 Alpha  occ. eigenvalues --   -0.53215  -0.52749  -0.52305  -0.52115  -0.51697
 Alpha  occ. eigenvalues --   -0.50734  -0.50355  -0.49880  -0.49503  -0.48726
 Alpha  occ. eigenvalues --   -0.48528  -0.47210  -0.46567  -0.44808  -0.42614
 Alpha  occ. eigenvalues --   -0.41623  -0.41580  -0.41163  -0.39047  -0.38950
 Alpha  occ. eigenvalues --   -0.38509  -0.38395  -0.34800
 Alpha virt. eigenvalues --    0.17000   0.19023   0.19541   0.19903   0.20366
 Alpha virt. eigenvalues --    0.21480   0.21857   0.22245   0.23040   0.23660
 Alpha virt. eigenvalues --    0.25388   0.25542   0.26212   0.26929   0.27442

 Mulliken atomic charges:
              1
     1  C   -0.279019
     2  N   -0.785607
     3  C    0.825072
     4  O   -0.615965
     5  C    0.082535
     6  C   -0.464508
     7  C   -0.330985
     8  C   -0.315990
     9  C   -0.364757
    10  C   -0.174074
    11  C   -0.175757
    12  C   -0.353847
    13  C   -0.310598
    14  C   -0.329134
    15  C    0.091112
    16  C   -0.509594
    17  N   -0.787591
    18  C    0.767266
    19  C   -0.595733
    20  O   -0.613683
    21  C    0.820497
    22  O   -0.639260
    23  N   -0.806157
    24  C   -0.275653
    25  N   -0.832276
    26  C    0.749482
    27  C   -0.588939
    28  O   -0.587705
    29  H    0.186282
    30  H    0.201468
    31  H    0.162074
    32  H    0.383714
    33  H    0.188880
    34  H    0.141257
    35  H    0.219894
    36  H    0.162329
    37  H    0.171370
    38  H    0.166768
    39  H    0.179552
    40  H    0.201843
    41  H    0.176527
    42  H    0.176870
    43  H    0.169995
    44  H    0.176775
    45  H    0.161011
    46  H    0.151773
    47  H    0.199155
    48  H    0.173415
    49  H    0.184545
    50  H    0.183677
    51  H    0.148164
    52  H    0.226995
    53  H    0.389725
    54  H    0.211454
    55  H    0.209537
    56  H    0.176326
    57  H    0.395396
    58  H    0.165024
    59  H    0.199439
    60  H    0.185428
    61  H    0.380498
    62  H    0.218618
    63  H    0.175792
    64  H    0.199297
 Sum of Mulliken atomic charges =   0.00000

 Dipole moment (field-independent basis, Debye):
    X=             -1.6363    Y=             -4.8901    Z=              6.4349  Tot=              8.2461
 Quadrupole moment (field-independent basis, Debye-Ang):
   XX=           -203.4385   YY=           -157.6194   ZZ=           -172.5978
   XY=             17.6116   XZ=            -18.2710   YZ=             10.4096

 Normal termination of Gaussian 09 at Thu Dec  5 15:59:41 2019.
