 Gaussian 09, Revision A.02,
 Gaussian 09:  EM64L-G09RevA.02 11-Jun-2009

 ---------------------------------
 #SP HF/6-31G* Geom=(ModRedundant)
 ---------------------------------

 ------------
 paramfit run
 ------------
 Symbolic Z-matrix:
 Charge =  0 Multiplicity = 1

                         Standard orientation:
 ---------------------------------------------------------------------
 Center     Atomic      Atomic             Coordinates (Angstroms)
 Number     Number       Type             X           Y           Z
 ---------------------------------------------------------------------
      1          6    20001001       -2.451343    2.400553   -0.106331
      2          7    20001014       -3.041155    1.099824   -0.346067
      3          6    20001002       -4.387586    0.963890   -0.373553
      4          8    20001024       -5.130149    1.904653   -0.431078
      5          6    90000001       -4.927828   -0.474480   -0.466379
      6          6    90000002       -5.550691   -0.700475   -1.847976
      7          6    90000002       -3.789557   -1.492107   -0.182876
      8          6    90000002       -2.555838   -1.508447   -1.103368
      9          6    90000002       -1.442172   -0.479412   -0.825028
     10          6    20001004       -0.877644   -0.547965    0.574574
     11          6    20001004        0.231243   -1.153310    0.967872
     12          6    90000002        1.207154   -1.927053    0.114248
     13          6    90000002        2.495355   -1.158214   -0.230700
     14          6    90000002        3.304249   -0.769119    1.013973
     15          6    90000002        4.709560   -0.147992    0.804335
     16          6    90000002        5.273539    0.204122    2.190479
     17          7    20001014        5.565795   -1.141117    0.170225
     18          6    20001002        6.820197   -0.826753   -0.266477
     19          6    20001001        7.430118   -1.823843   -1.224920
     20          8    20001024        7.401175    0.163977    0.080018
     21          6    20001002        4.576215    1.058182   -0.152788
     22          8    20001024        4.559818    0.888911   -1.342329
     23          7    20001014        4.378132    2.273603    0.401737
     24          6    20001001        4.295768    3.452875   -0.435362
     25          7    20001014       -5.918368   -0.719480    0.592033
     26          6    20001002       -7.075079   -0.009554    0.725059
     27          6    20001001       -8.111334   -0.633785    1.636449
     28          8    20001024       -7.257713    1.038168    0.172731
     29          1    20001035       -2.661576    2.760434    0.894287
     30          1    20001035       -2.841215    3.114627   -0.816839
     31          1    20001035       -1.379516    2.323873   -0.239226
     32          1    20001029       -2.519879    0.303451   -0.062613
     33          1    20001034       -4.838849   -0.502732   -2.634813
     34          1    20001034       -5.890285   -1.728888   -1.927227
     35          1    20001034       -6.392595   -0.039538   -1.993873
     36          1    20001034       -4.251645   -2.474566   -0.249745
     37          1    20001034       -3.472167   -1.374979    0.848543
     38          1    20001034       -2.116299   -2.497292   -1.010578
     39          1    20001034       -2.864451   -1.412120   -2.139154
     40          1    20001034       -1.807527    0.522309   -1.010586
     41          1    20001034       -0.657894   -0.651580   -1.553795
     42          1    20001033       -1.454764   -0.035972    1.327509
     43          1    20001033        0.481312   -1.092216    2.015485
     44          1    20001034        0.736200   -2.232525   -0.812227
     45          1    20001034        1.471600   -2.845413    0.637008
     46          1    20001034        3.085400   -1.783276   -0.895169
     47          1    20001034        2.242146   -0.273934   -0.800581
     48          1    20001034        3.444098   -1.646099    1.642371
     49          1    20001034        2.726079   -0.060158    1.594872
     50          1    20001034        5.425315   -0.713622    2.746620
     51          1    20001034        4.576355    0.814552    2.755006
     52          1    20001034        6.222235    0.714359    2.117176
     53          1    20001029        5.092431   -1.820610   -0.380163
     54          1    20001034        8.503252   -1.708001   -1.219722
     55          1    20001034        7.061843   -1.612770   -2.224393
     56          1    20001034        7.168926   -2.845685   -0.971936
     57          1    20001029        4.634835    2.407510    1.351200
     58          1    20001035        4.016139    4.296187    0.182340
     59          1    20001035        3.542826    3.308339   -1.196160
     60          1    20001035        5.240757    3.666394   -0.924402
     61          1    20001029       -5.915302   -1.636987    0.978967
     62          1    20001034       -8.783342    0.138416    1.981535
     63          1    20001034       -7.662017   -1.134236    2.486868
     64          1    20001034       -8.684255   -1.365401    1.075823
 ---------------------------------------------------------------------

 SCF Done:  E(RHF) =  -1295.46775087     A.U. after   15 cycles

 The electronic state is 1-A.
 Alpha  occ. eigenvalues --  -20.52495 -20.52173 -20.50207 -20.50167 -15.58453
 Alpha  occ. eigenvalues --  -15.58038 -15.57913 -15.56264 -11.34704 -11.34252
 Alpha  occ. eigenvalues --  -11.33286 -11.32671 -11.29160 -11.28779 -11.25509
 Alpha  occ. eigenvalues --  -11.25506 -11.24323 -11.24150 -11.24093 -11.23977
 Alpha  occ. eigenvalues --  -11.23882 -11.23633 -11.23285 -11.22909 -11.22528
 Alpha  occ. eigenvalues --  -11.22301 -11.21446 -11.21374  -1.39881  -1.38606
 Alpha  occ. eigenvalues --   -1.38511  -1.36594  -1.25461  -1.24076  -1.23201
 Alpha  occ. eigenvalues --   -1.23165  -1.12140  -1.09905  -1.07955  -1.05335
 Alpha  occ. eigenvalues --   -1.01592  -0.99324  -0.98680  -0.96587  -0.95818
 Alpha  occ. eigenvalues --   -0.95292  -0.93477  -0.88248  -0.86383  -0.84905
 Alpha  occ. eigenvalues --   -0.82912  -0.80028  -0.78739  -0.77656  -0.77413
 Alpha  occ. eigenvalues --   -0.73513  -0.71945  -0.70605  -0.68560  -0.67769
 Alpha  occ. eigenvalues --   -0.66723  -0.65284  -0.64751  -0.64393  -0.63988
 Alpha  occ. eigenvalues --   -0.62855  -0.62247  -0.61938  -0.61896  -0.61630
 Alpha  occ. eigenvalues --   -0.61178  -0.59977  -0.59372  -0.59274  -0.59060
 Alpha  occ. eigenvalues --   -0.57625  -0.57120  -0.56893  -0.56843  -0.56450
 Alpha  occ. eigenvalues --   -0.55687  -0.55402  -0.55331  -0.55090  -0.54080
 Alpha  occ. eigenvalues --   -0.53717  -0.53330  -0.52856  -0.52344  -0.51018
 Alpha  occ. eigenvalues --   -0.50540  -0.50329  -0.50087  -0.49384  -0.49042
 Alpha  occ. eigenvalues --   -0.48286  -0.47357  -0.47177  -0.45894  -0.42710
 Alpha  occ. eigenvalues --   -0.42059  -0.41525  -0.39371  -0.38849  -0.38469
 Alpha  occ. eigenvalues --   -0.37494  -0.36064  -0.35131
 Alpha virt. eigenvalues --    0.15540   0.19123   0.19873   0.20882   0.21055
 Alpha virt. eigenvalues --    0.21270   0.21397   0.22517   0.23132   0.23546
 Alpha virt. eigenvalues --    0.25143   0.25381   0.25756   0.26779   0.26980

 Mulliken atomic charges:
              1
     1  C   -0.284293
     2  N   -0.935524
     3  C    0.784409
     4  O   -0.558666
     5  C    0.134424
     6  C   -0.484944
     7  C   -0.406431
     8  C   -0.295632
     9  C   -0.557035
    10  C   -0.177114
    11  C   -0.181208
    12  C   -0.357121
    13  C   -0.312094
    14  C   -0.330118
    15  C    0.091291
    16  C   -0.509907
    17  N   -0.787402
    18  C    0.767194
    19  C   -0.595892
    20  O   -0.612902
    21  C    0.819787
    22  O   -0.639374
    23  N   -0.806663
    24  C   -0.275856
    25  N   -0.821385
    26  C    0.736269
    27  C   -0.587336
    28  O   -0.547006
    29  H    0.180734
    30  H    0.214087
    31  H    0.169244
    32  H    0.489329
    33  H    0.167491
    34  H    0.152860
    35  H    0.234157
    36  H    0.175430
    37  H    0.189332
    38  H    0.180238
    39  H    0.183067
    40  H    0.318269
    41  H    0.193315
    42  H    0.197567
    43  H    0.179755
    44  H    0.181720
    45  H    0.165476
    46  H    0.155273
    47  H    0.198433
    48  H    0.175363
    49  H    0.183446
    50  H    0.184697
    51  H    0.148680
    52  H    0.228230
    53  H    0.389353
    54  H    0.212510
    55  H    0.209409
    56  H    0.176673
    57  H    0.396371
    58  H    0.166309
    59  H    0.197257
    60  H    0.186900
    61  H    0.374577
    62  H    0.216066
    63  H    0.170344
    64  H    0.188563
 Sum of Mulliken atomic charges =   0.00000

 Dipole moment (field-independent basis, Debye):
    X=              1.5273    Y=             -6.2485    Z=              3.0911  Tot=              7.1366
 Quadrupole moment (field-independent basis, Debye-Ang):
   XX=           -225.8046   YY=           -162.1245   ZZ=           -168.0142
   XY=             26.0086   XZ=             -2.6152   YZ=              6.3095

 Normal termination of Gaussian 09 at Thu Dec  5 16:39:16 2019.
