 Gaussian 09, Revision A.02,
 Gaussian 09:  EM64L-G09RevA.02 11-Jun-2009

 ---------------------------------
 #SP HF/6-31G* Geom=(ModRedundant)
 ---------------------------------

 ------------
 paramfit run
 ------------
 Symbolic Z-matrix:
 Charge =  0 Multiplicity = 1

                         Standard orientation:
 ---------------------------------------------------------------------
 Center     Atomic      Atomic             Coordinates (Angstroms)
 Number     Number       Type             X           Y           Z
 ---------------------------------------------------------------------
      1          6    20001001       -4.758115    3.134846    0.053195
      2          7    20001014       -5.088002    1.726653    0.126753
      3          6    20001002       -4.285797    0.813436   -0.468740
      4          8    20001024       -3.187920    1.083410   -0.870643
      5          6    90000001       -4.797181   -0.638319   -0.485438
      6          6    90000002       -5.407392   -0.951649   -1.855586
      7          6    90000002       -3.640856   -1.616127   -0.141337
      8          6    90000002       -2.401685   -1.658075   -1.053657
      9          6    90000002       -1.310057   -0.593443   -0.826627
     10          6    20001004       -0.752499   -0.574342    0.577311
     11          6    20001004        0.365721   -1.135162    1.008381
     12          6    90000002        1.361597   -1.934722    0.202968
     13          6    90000002        2.636473   -1.160353   -0.177304
     14          6    90000002        3.430281   -0.687963    1.048107
     15          6    90000002        4.824346   -0.051350    0.811571
     16          6    90000002        5.373187    0.386963    2.179089
     17          7    20001014        5.703588   -1.060335    0.236753
     18          6    20001002        6.954120   -0.745351   -0.210473
     19          6    20001001        7.589077   -1.780878   -1.110094
     20          8    20001024        7.513523    0.274160    0.084160
     21          6    20001002        4.672985    1.097958   -0.210636
     22          8    20001024        4.666877    0.863794   -1.389220
     23          7    20001014        4.447866    2.337620    0.275717
     24          6    20001001        4.347300    3.467629   -0.624931
     25          7    20001014       -5.788908   -0.844912    0.580032
     26          6    20001002       -6.960075   -0.151944    0.668554
     27          6    20001001       -7.989211   -0.746054    1.607721
     28          8    20001024       -7.159977    0.860265    0.058954
     29          1    20001035       -4.823944    3.512008   -0.960889
     30          1    20001035       -3.752319    3.293382    0.413701
     31          1    20001035       -5.446459    3.684465    0.682841
     32          1    20001029       -6.048077    1.486950    0.210922
     33          1    20001034       -4.694969   -0.782972   -2.648641
     34          1    20001034       -5.726287   -1.989406   -1.880166
     35          1    20001034       -6.261224   -0.316532   -2.041390
     36          1    20001034       -4.083193   -2.609769   -0.156648
     37          1    20001034       -3.331869   -1.436650    0.883649
     38          1    20001034       -1.943392   -2.631449   -0.904893
     39          1    20001034       -2.706056   -1.624521   -2.094621
     40          1    20001034       -1.693890    0.389206   -1.068368
     41          1    20001034       -0.518300   -0.789447   -1.541146
     42          1    20001033       -1.343946   -0.033647    1.298390
     43          1    20001033        0.608405   -1.012080    2.052276
     44          1    20001034        0.902156   -2.299560   -0.707676
     45          1    20001034        1.640932   -2.817772    0.776369
     46          1    20001034        3.242542   -1.808846   -0.803811
     47          1    20001034        2.369317   -0.313671   -0.795840
     48          1    20001034        3.583615   -1.526421    1.724132
     49          1    20001034        2.834930    0.039971    1.586644
     50          1    20001034        5.539668   -0.495894    2.785250
     51          1    20001034        4.660874    1.013269    2.706092
     52          1    20001034        6.312109    0.911219    2.082558
     53          1    20001029        5.246869   -1.778107   -0.277952
     54          1    20001034        8.659683   -1.643595   -1.106106
     55          1    20001034        7.222593   -1.631977   -2.121353
     56          1    20001034        7.346492   -2.792402   -0.802923
     57          1    20001029        4.696331    2.528173    1.217665
     58          1    20001035        4.047579    4.337631   -0.055559
     59          1    20001035        3.601805    3.266877   -1.380286
     60          1    20001035        5.290768    3.672928   -1.120384
     61          1    20001029       -5.770120   -1.739716    1.016517
     62          1    20001034       -8.678238    0.030289    1.906896
     63          1    20001034       -7.535155   -1.190359    2.486343
     64          1    20001034       -8.544383   -1.518401    1.085165
 ---------------------------------------------------------------------

 SCF Done:  E(RHF) =  -1295.55047463     A.U. after   14 cycles

 The electronic state is 1-A.
 Alpha  occ. eigenvalues --  -20.56105 -20.51574 -20.50991 -20.50784 -15.61290
 Alpha  occ. eigenvalues --  -15.57320 -15.56971 -15.52652 -11.38873 -11.33782
 Alpha  occ. eigenvalues --  -11.33079 -11.33077 -11.29458 -11.27919 -11.25799
 Alpha  occ. eigenvalues --  -11.24461 -11.23450 -11.23167 -11.22686 -11.22567
 Alpha  occ. eigenvalues --  -11.22115 -11.21367 -11.21356 -11.21293 -11.21238
 Alpha  occ. eigenvalues --  -11.20537 -11.20348 -11.17766  -1.45878  -1.38835
 Alpha  occ. eigenvalues --   -1.38467  -1.37546  -1.26866  -1.22984  -1.22035
 Alpha  occ. eigenvalues --   -1.20329  -1.09748  -1.08885  -1.06475  -1.03716
 Alpha  occ. eigenvalues --   -1.01694  -0.99507  -0.98312  -0.94607  -0.94186
 Alpha  occ. eigenvalues --   -0.93880  -0.91535  -0.86844  -0.85016  -0.83974
 Alpha  occ. eigenvalues --   -0.81375  -0.79267  -0.78960  -0.78480  -0.76305
 Alpha  occ. eigenvalues --   -0.72777  -0.71323  -0.70835  -0.68986  -0.67363
 Alpha  occ. eigenvalues --   -0.66598  -0.66169  -0.64200  -0.63945  -0.63350
 Alpha  occ. eigenvalues --   -0.63073  -0.62244  -0.61495  -0.61075  -0.60756
 Alpha  occ. eigenvalues --   -0.60378  -0.60109  -0.59377  -0.58606  -0.58242
 Alpha  occ. eigenvalues --   -0.58047  -0.57279  -0.56832  -0.56000  -0.55612
 Alpha  occ. eigenvalues --   -0.55297  -0.54693  -0.54266  -0.54113  -0.53862
 Alpha  occ. eigenvalues --   -0.53177  -0.52468  -0.52004  -0.51558  -0.51194
 Alpha  occ. eigenvalues --   -0.50594  -0.49564  -0.49231  -0.47969  -0.47473
 Alpha  occ. eigenvalues --   -0.47274  -0.45478  -0.45083  -0.43504  -0.42925
 Alpha  occ. eigenvalues --   -0.42031  -0.40923  -0.40571  -0.38891  -0.38274
 Alpha  occ. eigenvalues --   -0.37696  -0.35543  -0.32764
 Alpha virt. eigenvalues --    0.15607   0.18825   0.19897   0.20206   0.20968
 Alpha virt. eigenvalues --    0.22159   0.22595   0.23865   0.23946   0.25353
 Alpha virt. eigenvalues --    0.25646   0.26252   0.27003   0.27851   0.28130

 Mulliken atomic charges:
              1
     1  C   -0.270653
     2  N   -0.849569
     3  C    0.812273
     4  O   -0.651535
     5  C    0.088358
     6  C   -0.488617
     7  C   -0.334319
     8  C   -0.302620
     9  C   -0.365159
    10  C   -0.171910
    11  C   -0.186444
    12  C   -0.347948
    13  C   -0.309592
    14  C   -0.328266
    15  C    0.090612
    16  C   -0.509477
    17  N   -0.787715
    18  C    0.767448
    19  C   -0.595461
    20  O   -0.614847
    21  C    0.821321
    22  O   -0.640033
    23  N   -0.805118
    24  C   -0.275015
    25  N   -0.803939
    26  C    0.762748
    27  C   -0.586218
    28  O   -0.656196
    29  H    0.162674
    30  H    0.183278
    31  H    0.158877
    32  H    0.517302
    33  H    0.197811
    34  H    0.161290
    35  H    0.200928
    36  H    0.150715
    37  H    0.187934
    38  H    0.156278
    39  H    0.161155
    40  H    0.286886
    41  H    0.146694
    42  H    0.168610
    43  H    0.161184
    44  H    0.177214
    45  H    0.153316
    46  H    0.146292
    47  H    0.200423
    48  H    0.171289
    49  H    0.186772
    50  H    0.182540
    51  H    0.148873
    52  H    0.224793
    53  H    0.390105
    54  H    0.209788
    55  H    0.209089
    56  H    0.175952
    57  H    0.394778
    58  H    0.164198
    59  H    0.200557
    60  H    0.182944
    61  H    0.393454
    62  H    0.221969
    63  H    0.194389
    64  H    0.207541
 Sum of Mulliken atomic charges =   0.00000

 Dipole moment (field-independent basis, Debye):
    X=             -6.9469    Y=             -4.4856    Z=              3.8427  Tot=              9.1184
 Quadrupole moment (field-independent basis, Debye-Ang):
   XX=           -164.2907   YY=           -156.4399   ZZ=           -169.7756
   XY=             10.6631   XZ=             -6.0378   YZ=              5.4273

 Normal termination of Gaussian 09 at Thu Dec  5 16:20:53 2019.
