 Gaussian 09, Revision A.02,
 Gaussian 09:  EM64L-G09RevA.02 11-Jun-2009

 ---------------------------------
 #SP HF/6-31G* Geom=(ModRedundant)
 ---------------------------------

 ------------
 paramfit run
 ------------
 Symbolic Z-matrix:
 Charge =  0 Multiplicity = 1

                         Standard orientation:
 ---------------------------------------------------------------------
 Center     Atomic      Atomic             Coordinates (Angstroms)
 Number     Number       Type             X           Y           Z
 ---------------------------------------------------------------------
      1          6    20001001       -3.088430    2.865091   -0.933687
      2          7    20001014       -3.753113    1.599626   -1.166155
      3          6    20001002       -4.358743    0.956824   -0.140423
      4          8    20001024       -4.570786    1.484049    0.916373
      5          6    90000001       -4.892891   -0.455654   -0.438712
      6          6    90000002       -5.524516   -0.481196   -1.834506
      7          6    90000002       -3.747875   -1.497281   -0.313993
      8          6    90000002       -2.520683   -1.372154   -1.234848
      9          6    90000002       -1.409893   -0.388437   -0.816419
     10          6    20001004       -0.835094   -0.657243    0.554577
     11          6    20001004        0.279389   -1.307190    0.848262
     12          6    90000002        1.252807   -1.942569   -0.115328
     13          6    90000002        2.534903   -1.124335   -0.352581
     14          6    90000002        3.350812   -0.916410    0.930375
     15          6    90000002        4.751670   -0.263383    0.804682
     16          6    90000002        5.323854   -0.114071    2.223753
     17          7    20001014        5.608009   -1.148496    0.027000
     18          6    20001002        6.857781   -0.766674   -0.367129
     19          6    20001001        7.465522   -1.609791   -1.464677
     20          8    20001024        7.436567    0.166185    0.116527
     21          6    20001002        4.605862    1.068747    0.034686
     22          8    20001024        4.581784    1.074741   -1.166695
     23          7    20001014        4.406045    2.189119    0.761886
     24          6    20001001        4.312197    3.477414    0.106379
     25          7    20001014       -5.874707   -0.858062    0.578900
     26          6    20001002       -7.033755   -0.181712    0.821458
     27          6    20001001       -8.060555   -0.938097    1.638577
     28          8    20001024       -7.225222    0.934327    0.429109
     29          1    20001035       -2.222786    2.753810   -0.290859
     30          1    20001035       -3.774523    3.557677   -0.468581
     31          1    20001035       -2.774075    3.270691   -1.887114
     32          1    20001029       -3.407919    1.032016   -1.904359
     33          1    20001034       -4.819231   -0.166741   -2.588578
     34          1    20001034       -5.859845   -1.488954   -2.060819
     35          1    20001034       -6.370524    0.189167   -1.877031
     36          1    20001034       -4.205823   -2.462077   -0.520573
     37          1    20001034       -3.423699   -1.530083    0.721436
     38          1    20001034       -2.075867   -2.361447   -1.290151
     39          1    20001034       -2.837115   -1.127497   -2.243505
     40          1    20001034       -1.781249    0.627550   -0.851483
     41          1    20001034       -0.630029   -0.447989   -1.567484
     42          1    20001033       -1.409227   -0.263857    1.377822
     43          1    20001033        0.536626   -1.398170    1.891964
     44          1    20001034        0.776700   -2.112274   -1.073445
     45          1    20001034        1.525269   -2.925855    0.266129
     46          1    20001034        3.123121   -1.642411   -1.104891
     47          1    20001034        2.273502   -0.167827   -0.785696
     48          1    20001034        3.499240   -1.874877    1.423168
     49          1    20001034        2.773483   -0.303074    1.612180
     50          1    20001034        5.483885   -1.102255    2.639040
     51          1    20001034        4.627859    0.403504    2.875740
     52          1    20001034        6.269604    0.406774    2.219656
     53          1    20001029        5.133923   -1.743096   -0.613630
     54          1    20001034        8.538111   -1.489860   -1.449459
     55          1    20001034        7.089152   -1.257253   -2.420285
     56          1    20001034        7.210927   -2.659072   -1.361859
     57          1    20001029        4.668877    2.184529    1.719074
     58          1    20001035        4.033030    4.219984    0.842298
     59          1    20001035        3.554540    3.441149   -0.662559
     60          1    20001035        5.252668    3.765352   -0.352272
     61          1    20001029       -5.864589   -1.822170    0.827775
     62          1    20001034       -8.733696   -0.228327    2.096924
     63          1    20001034       -7.602852   -1.554707    2.403986
     64          1    20001034       -8.634022   -1.583332    0.980848
 ---------------------------------------------------------------------

 SCF Done:  E(RHF) =  -1295.59825737     A.U. after   14 cycles

 The electronic state is 1-A.
 Alpha  occ. eigenvalues --  -20.52324 -20.51964 -20.51242 -20.51125 -15.58231
 Alpha  occ. eigenvalues --  -15.57885 -15.57832 -15.57785 -11.34534 -11.34036
 Alpha  occ. eigenvalues --  -11.33764 -11.33430 -11.28997 -11.28901 -11.25326
 Alpha  occ. eigenvalues --  -11.25308 -11.24305 -11.24132 -11.23805 -11.23212
 Alpha  occ. eigenvalues --  -11.23154 -11.23036 -11.22927 -11.22845 -11.22783
 Alpha  occ. eigenvalues --  -11.22655 -11.22147 -11.22048  -1.39689  -1.38858
 Alpha  occ. eigenvalues --   -1.38417  -1.37333  -1.23863  -1.23491  -1.22947
 Alpha  occ. eigenvalues --   -1.22902  -1.11565  -1.09703  -1.07559  -1.04781
 Alpha  occ. eigenvalues --   -1.01336  -0.99151  -0.98849  -0.96053  -0.95092
 Alpha  occ. eigenvalues --   -0.94830  -0.92974  -0.88081  -0.86158  -0.83189
 Alpha  occ. eigenvalues --   -0.81573  -0.79804  -0.78455  -0.77343  -0.77198
 Alpha  occ. eigenvalues --   -0.72566  -0.71665  -0.70504  -0.68496  -0.67821
 Alpha  occ. eigenvalues --   -0.67390  -0.65328  -0.64836  -0.64138  -0.63159
 Alpha  occ. eigenvalues --   -0.62611  -0.62367  -0.62079  -0.61756  -0.61399
 Alpha  occ. eigenvalues --   -0.61203  -0.60116  -0.59455  -0.58990  -0.58475
 Alpha  occ. eigenvalues --   -0.57812  -0.57430  -0.56791  -0.56659  -0.56378
 Alpha  occ. eigenvalues --   -0.55618  -0.55191  -0.55092  -0.55006  -0.54674
 Alpha  occ. eigenvalues --   -0.53872  -0.53427  -0.52877  -0.52529  -0.51999
 Alpha  occ. eigenvalues --   -0.50945  -0.50154  -0.49955  -0.49642  -0.49051
 Alpha  occ. eigenvalues --   -0.48923  -0.47287  -0.46871  -0.45359  -0.41848
 Alpha  occ. eigenvalues --   -0.41348  -0.41075  -0.40151  -0.39163  -0.38632
 Alpha  occ. eigenvalues --   -0.38604  -0.37682  -0.35305
 Alpha virt. eigenvalues --    0.16449   0.19332   0.19814   0.20425   0.21263
 Alpha virt. eigenvalues --    0.21326   0.21624   0.22243   0.22822   0.23862
 Alpha virt. eigenvalues --    0.23999   0.25093   0.25797   0.26681   0.27193

 Mulliken atomic charges:
              1
     1  C   -0.285143
     2  N   -0.794153
     3  C    0.802847
     4  O   -0.593655
     5  C    0.091840
     6  C   -0.471314
     7  C   -0.337257
     8  C   -0.336788
     9  C   -0.373028
    10  C   -0.179389
    11  C   -0.174229
    12  C   -0.355741
    13  C   -0.310248
    14  C   -0.330068
    15  C    0.090771
    16  C   -0.510122
    17  N   -0.787297
    18  C    0.767277
    19  C   -0.595777
    20  O   -0.613193
    21  C    0.820224
    22  O   -0.640818
    23  N   -0.805751
    24  C   -0.275258
    25  N   -0.803023
    26  C    0.770468
    27  C   -0.588658
    28  O   -0.594228
    29  H    0.166122
    30  H    0.219252
    31  H    0.170027
    32  H    0.385910
    33  H    0.146842
    34  H    0.157386
    35  H    0.225294
    36  H    0.164093
    37  H    0.202832
    38  H    0.180449
    39  H    0.156861
    40  H    0.186651
    41  H    0.178253
    42  H    0.193694
    43  H    0.178148
    44  H    0.173684
    45  H    0.164377
    46  H    0.152285
    47  H    0.196301
    48  H    0.174934
    49  H    0.186517
    50  H    0.184476
    51  H    0.149878
    52  H    0.227319
    53  H    0.389237
    54  H    0.212047
    55  H    0.208730
    56  H    0.176595
    57  H    0.396622
    58  H    0.166779
    59  H    0.196370
    60  H    0.185757
    61  H    0.375112
    62  H    0.217390
    63  H    0.178088
    64  H    0.187398
 Sum of Mulliken atomic charges =   0.00000

 Dipole moment (field-independent basis, Debye):
    X=              0.2858    Y=             -5.8033    Z=             -0.8189  Tot=              5.8678
 Quadrupole moment (field-independent basis, Debye-Ang):
   XX=           -217.1227   YY=           -159.6204   ZZ=           -166.5585
   XY=             20.3955   XZ=             11.9534   YZ=              0.8532

 Normal termination of Gaussian 09 at Thu Dec  5 16:10:47 2019.
