 Gaussian 09, Revision A.02,
 Gaussian 09:  EM64L-G09RevA.02 11-Jun-2009

 ---------------------------------
 #SP HF/6-31G* Geom=(ModRedundant)
 ---------------------------------

 ------------
 paramfit run
 ------------
 Symbolic Z-matrix:
 Charge =  0 Multiplicity = 1

                         Standard orientation:
 ---------------------------------------------------------------------
 Center     Atomic      Atomic             Coordinates (Angstroms)
 Number     Number       Type             X           Y           Z
 ---------------------------------------------------------------------
      1          6    20001001       -2.754946    2.667100   -0.828196
      2          7    20001014       -3.423397    1.404870   -1.067348
      3          6    20001002       -4.373130    0.970250   -0.206406
      4          8    20001024       -4.856524    1.678821    0.632643
      5          6    90000001       -4.910600   -0.452667   -0.442666
      6          6    90000002       -5.538734   -0.538854   -1.837607
      7          6    90000002       -3.768924   -1.490849   -0.268431
      8          6    90000002       -2.539031   -1.410438   -1.190672
      9          6    90000002       -1.426470   -0.412080   -0.813676
     10          6    20001004       -0.855949   -0.620897    0.569502
     11          6    20001004        0.255897   -1.260152    0.894938
     12          6    90000002        1.229926   -1.940689   -0.036668
     13          6    90000002        2.514985   -1.137447   -0.306838
     14          6    90000002        3.328218   -0.874619    0.967717
     15          6    90000002        4.731276   -0.231757    0.816699
     16          6    90000002        5.300269   -0.020720    2.229201
     17          7    20001014        5.587030   -1.153139    0.081668
     18          6    20001002        6.838903   -0.792798   -0.325793
     19          6    20001001        7.446999   -1.685839   -1.382912
     20          8    20001024        7.419151    0.159148    0.117214
     21          6    20001002        4.591287    1.065003   -0.012481
     22          8    20001024        4.570290    1.017330   -1.212987
     23          7    20001014        4.392857    2.217326    0.663358
     24          6    20001001        4.304410    3.475272   -0.049350
     25          7    20001014       -5.896169   -0.806434    0.589290
     26          6    20001002       -7.053868   -0.116699    0.798260
     27          6    20001001       -8.084933   -0.832930    1.645631
     28          8    20001024       -7.241104    0.981204    0.355887
     29          1    20001035       -2.146352    2.637614    0.068293
     30          1    20001035       -3.487639    3.453327   -0.719890
     31          1    20001035       -2.124327    2.890995   -1.679399
     32          1    20001029       -2.916964    0.706707   -1.559667
     33          1    20001034       -4.830622   -0.260396   -2.603095
     34          1    20001034       -5.876400   -1.554789   -2.019530
     35          1    20001034       -6.382688    0.131283   -1.912330
     36          1    20001034       -4.229132   -2.462643   -0.432888
     37          1    20001034       -3.447485   -1.478212    0.768293
     38          1    20001034       -2.096939   -2.402445   -1.200492
     39          1    20001034       -2.852180   -1.210258   -2.210103
     40          1    20001034       -1.794794    0.602350   -0.895128
     41          1    20001034       -0.644869   -0.507326   -1.559237
     42          1    20001033       -1.431038   -0.189495    1.372793
     43          1    20001033        0.510207   -1.305077    1.942349
     44          1    20001034        0.755776   -2.151751   -0.987510
     45          1    20001034        1.498568   -2.906683    0.389103
     46          1    20001034        3.103618   -1.690282   -1.033652
     47          1    20001034        2.257458   -0.200543   -0.782989
     48          1    20001034        3.472615   -1.810496    1.503271
     49          1    20001034        2.750928   -0.229803    1.619866
     50          1    20001034        5.456380   -0.989783    2.688686
     51          1    20001034        4.604113    0.527426    2.855527
     52          1    20001034        6.247529    0.496794    2.204350
     53          1    20001029        5.112860   -1.774476   -0.533000
     54          1    20001034        8.519887   -1.568326   -1.370201
     55          1    20001034        7.074088   -1.375348   -2.354332
     56          1    20001034        7.189107   -2.728762   -1.233959
     57          1    20001029        4.653233    2.254818    1.620493
     58          1    20001035        4.025517    4.250784    0.651879
     59          1    20001035        3.548614    3.406759   -0.817922
     60          1    20001035        5.246876    3.739798   -0.517898
     61          1    20001029       -5.889473   -1.758473    0.881053
     62          1    20001034       -8.757184   -0.101506    2.069979
     63          1    20001034       -7.630969   -1.415960    2.439068
     64          1    20001034       -8.658585   -1.505340    1.015879
 ---------------------------------------------------------------------

 SCF Done:  E(RHF) =  -1295.55564297     A.U. after   14 cycles

 The electronic state is 1-A.
 Alpha  occ. eigenvalues --  -20.52422 -20.52088 -20.50802 -20.50401 -15.58354
 Alpha  occ. eigenvalues --  -15.57946 -15.57567 -15.57201 -11.34632 -11.34160
 Alpha  occ. eigenvalues --  -11.33246 -11.33086 -11.29036 -11.28906 -11.25436
 Alpha  occ. eigenvalues --  -11.25429 -11.24529 -11.24460 -11.23977 -11.23459
 Alpha  occ. eigenvalues --  -11.23410 -11.23250 -11.23124 -11.23091 -11.22864
 Alpha  occ. eigenvalues --  -11.22398 -11.22171 -11.21938  -1.39800  -1.38643
 Alpha  occ. eigenvalues --   -1.38528  -1.36678  -1.23981  -1.23810  -1.23069
 Alpha  occ. eigenvalues --   -1.22908  -1.11877  -1.09877  -1.07705  -1.05055
 Alpha  occ. eigenvalues --   -1.01533  -0.99235  -0.98624  -0.96272  -0.95277
 Alpha  occ. eigenvalues --   -0.95085  -0.93304  -0.88087  -0.86259  -0.83362
 Alpha  occ. eigenvalues --   -0.82548  -0.79946  -0.79051  -0.77787  -0.77317
 Alpha  occ. eigenvalues --   -0.72601  -0.71770  -0.70450  -0.68604  -0.67626
 Alpha  occ. eigenvalues --   -0.67351  -0.65168  -0.65008  -0.64310  -0.63313
 Alpha  occ. eigenvalues --   -0.62692  -0.62480  -0.61944  -0.61851  -0.61495
 Alpha  occ. eigenvalues --   -0.60893  -0.60339  -0.59577  -0.59095  -0.58686
 Alpha  occ. eigenvalues --   -0.57696  -0.57657  -0.56923  -0.56642  -0.56311
 Alpha  occ. eigenvalues --   -0.55664  -0.55318  -0.55192  -0.54893  -0.54381
 Alpha  occ. eigenvalues --   -0.53945  -0.53558  -0.52811  -0.52279  -0.52076
 Alpha  occ. eigenvalues --   -0.51104  -0.50303  -0.50129  -0.49497  -0.49230
 Alpha  occ. eigenvalues --   -0.48807  -0.47443  -0.47043  -0.45659  -0.41970
 Alpha  occ. eigenvalues --   -0.41690  -0.41449  -0.39280  -0.39046  -0.38746
 Alpha  occ. eigenvalues --   -0.38251  -0.36544  -0.35506
 Alpha virt. eigenvalues --    0.16225   0.19213   0.19616   0.20903   0.21145
 Alpha virt. eigenvalues --    0.21433   0.21942   0.22559   0.23057   0.23664
 Alpha virt. eigenvalues --    0.24134   0.24929   0.25578   0.26573   0.27055

 Mulliken atomic charges:
              1
     1  C   -0.294176
     2  N   -0.821080
     3  C    0.787339
     4  O   -0.573607
     5  C    0.096423
     6  C   -0.479160
     7  C   -0.340136
     8  C   -0.369784
     9  C   -0.400846
    10  C   -0.167678
    11  C   -0.174248
    12  C   -0.356248
    13  C   -0.310540
    14  C   -0.330151
    15  C    0.090888
    16  C   -0.510098
    17  N   -0.787294
    18  C    0.767239
    19  C   -0.595826
    20  O   -0.613008
    21  C    0.820071
    22  O   -0.640554
    23  N   -0.806016
    24  C   -0.275379
    25  N   -0.809614
    26  C    0.762322
    27  C   -0.586915
    28  O   -0.576268
    29  H    0.170976
    30  H    0.224417
    31  H    0.171383
    32  H    0.414858
    33  H    0.164102
    34  H    0.156184
    35  H    0.224947
    36  H    0.166998
    37  H    0.198501
    38  H    0.191372
    39  H    0.173319
    40  H    0.192725
    41  H    0.182261
    42  H    0.187193
    43  H    0.178908
    44  H    0.174574
    45  H    0.165195
    46  H    0.153284
    47  H    0.196289
    48  H    0.175246
    49  H    0.185788
    50  H    0.184652
    51  H    0.149600
    52  H    0.227720
    53  H    0.389207
    54  H    0.212328
    55  H    0.208877
    56  H    0.176647
    57  H    0.396673
    58  H    0.166833
    59  H    0.196228
    60  H    0.186265
    61  H    0.373673
    62  H    0.216687
    63  H    0.174235
    64  H    0.186199
 Sum of Mulliken atomic charges =   0.00000

 Dipole moment (field-independent basis, Debye):
    X=              1.1213    Y=             -6.1838    Z=              0.1275  Tot=              6.2859
 Quadrupole moment (field-independent basis, Debye-Ang):
   XX=           -223.1208   YY=           -160.8765   ZZ=           -167.1070
   XY=             23.3623   XZ=              8.6991   YZ=              2.0872

 Normal termination of Gaussian 09 at Thu Dec  5 15:59:49 2019.
