 Gaussian 09, Revision A.02,
 Gaussian 09:  EM64L-G09RevA.02 11-Jun-2009

 ---------------------------------
 #SP HF/6-31G* Geom=(ModRedundant)
 ---------------------------------

 ------------
 paramfit run
 ------------
 Symbolic Z-matrix:
 Charge =  0 Multiplicity = 1

                         Standard orientation:
 ---------------------------------------------------------------------
 Center     Atomic      Atomic             Coordinates (Angstroms)
 Number     Number       Type             X           Y           Z
 ---------------------------------------------------------------------
      1          6    20001001       -3.491351    3.048367   -0.930613
      2          7    20001014       -4.130627    1.766601   -1.144268
      3          6    20001002       -4.342012    0.934893   -0.097518
      4          8    20001024       -4.230300    1.291334    1.042752
      5          6    90000001       -4.871503   -0.470101   -0.436660
      6          6    90000002       -5.506563   -0.456330   -1.831060
      7          6    90000002       -3.722194   -1.510517   -0.345949
      8          6    90000002       -2.497829   -1.353100   -1.265614
      9          6    90000002       -1.389757   -0.378017   -0.820616
     10          6    20001004       -0.810457   -0.685482    0.540323
     11          6    20001004        0.307249   -1.339572    0.811724
     12          6    90000002        1.280646   -1.942027   -0.172808
     13          6    90000002        2.558992   -1.112061   -0.388565
     14          6    90000002        3.377351   -0.939437    0.898061
     15          6    90000002        4.775374   -0.277478    0.788581
     16          6    90000002        5.350580   -0.168464    2.210096
     17          7    20001014        5.633121   -1.135574   -0.017318
     18          6    20001002        6.880418   -0.737254   -0.402866
     19          6    20001001        7.488597   -1.544771   -1.526627
     20          8    20001024        7.456853    0.182967    0.107095
     21          6    20001002        4.622514    1.076518    0.059161
     22          8    20001024        4.595366    1.118366   -1.141440
     23          7    20001014        4.420253    2.173838    0.820054
     24          6    20001001        4.319811    3.480796    0.203633
     25          7    20001014       -5.849187   -0.906609    0.570824
     26          6    20001002       -7.010195   -0.242350    0.836325
     27          6    20001001       -8.032016   -1.026850    1.632919
     28          8    20001024       -7.206930    0.884173    0.478022
     29          1    20001035       -2.460820    2.937146   -0.613464
     30          1    20001035       -4.026123    3.600992   -0.172096
     31          1    20001035       -3.520288    3.607788   -1.857200
     32          1    20001029       -4.012188    1.340480   -2.033469
     33          1    20001034       -4.804403   -0.116700   -2.577086
     34          1    20001034       -5.838604   -1.458165   -2.086626
     35          1    20001034       -6.355237    0.211698   -1.851452
     36          1    20001034       -4.176965   -2.470480   -0.580206
     37          1    20001034       -3.395268   -1.573023    0.687246
     38          1    20001034       -2.049370   -2.338551   -1.351581
     39          1    20001034       -2.817753   -1.079607   -2.265726
     40          1    20001034       -1.765087    0.637107   -0.824352
     41          1    20001034       -0.611578   -0.412023   -1.575014
     42          1    20001033       -1.384002   -0.319152    1.376363
     43          1    20001033        0.567479   -1.460738    1.851608
     44          1    20001034        0.802763   -2.084842   -1.134420
     45          1    20001034        1.557837   -2.935216    0.178384
     46          1    20001034        3.147281   -1.605093   -1.157467
     47          1    20001034        2.292833   -0.144048   -0.792221
     48          1    20001034        3.530698   -1.911634    1.361582
     49          1    20001034        2.799408   -0.349036    1.599316
     50          1    20001034        5.515447   -1.168001    2.595228
     51          1    20001034        4.654263    0.326647    2.878967
     52          1    20001034        6.294315    0.355958    2.219302
     53          1    20001029        5.159692   -1.712584   -0.674309
     54          1    20001034        8.560754   -1.421163   -1.510423
     55          1    20001034        7.108458   -1.165266   -2.470340
     56          1    20001034        7.238284   -2.597644   -1.454647
     57          1    20001029        4.685527    2.141633    1.776037
     58          1    20001035        4.039670    4.199917    0.962122
     59          1    20001035        3.560350    3.464600   -0.564211
     60          1    20001035        5.258005    3.785998   -0.248470
     61          1    20001029       -5.834744   -1.877686    0.790704
     62          1    20001034       -8.706706   -0.333747    2.113934
     63          1    20001034       -7.570015   -1.664297    2.378417
     64          1    20001034       -8.604675   -1.654348    0.957560
 ---------------------------------------------------------------------

 SCF Done:  E(RHF) =  -1295.60720901     A.U. after   14 cycles

 The electronic state is 1-A.
 Alpha  occ. eigenvalues --  -20.52198 -20.51803 -20.51802 -20.51305 -15.58139
 Alpha  occ. eigenvalues --  -15.58073 -15.57881 -15.57687 -11.34409 -11.34299
 Alpha  occ. eigenvalues --  -11.33875 -11.33593 -11.29086 -11.28731 -11.25181
 Alpha  occ. eigenvalues --  -11.25100 -11.24051 -11.23721 -11.23592 -11.22970
 Alpha  occ. eigenvalues --  -11.22955 -11.22914 -11.22679 -11.22675 -11.22601
 Alpha  occ. eigenvalues --  -11.22413 -11.22383 -11.21896  -1.39545  -1.39074
 Alpha  occ. eigenvalues --   -1.38274  -1.37832  -1.23715  -1.23699  -1.22815
 Alpha  occ. eigenvalues --   -1.22790  -1.11247  -1.09529  -1.07409  -1.04621
 Alpha  occ. eigenvalues --   -1.01161  -0.99213  -0.98967  -0.95949  -0.94930
 Alpha  occ. eigenvalues --   -0.94533  -0.92749  -0.88055  -0.86028  -0.83100
 Alpha  occ. eigenvalues --   -0.81346  -0.79652  -0.78335  -0.77220  -0.77045
 Alpha  occ. eigenvalues --   -0.72246  -0.71472  -0.70826  -0.68368  -0.67980
 Alpha  occ. eigenvalues --   -0.67068  -0.65328  -0.64628  -0.63933  -0.63461
 Alpha  occ. eigenvalues --   -0.62382  -0.62229  -0.62007  -0.61628  -0.61330
 Alpha  occ. eigenvalues --   -0.61133  -0.60104  -0.59362  -0.58855  -0.58312
 Alpha  occ. eigenvalues --   -0.57775  -0.57167  -0.56862  -0.56575  -0.56300
 Alpha  occ. eigenvalues --   -0.55581  -0.55359  -0.55053  -0.54905  -0.54443
 Alpha  occ. eigenvalues --   -0.53813  -0.53263  -0.52886  -0.52281  -0.51754
 Alpha  occ. eigenvalues --   -0.50918  -0.50208  -0.49946  -0.49552  -0.48889
 Alpha  occ. eigenvalues --   -0.48709  -0.47205  -0.46647  -0.44996  -0.41693
 Alpha  occ. eigenvalues --   -0.41218  -0.41125  -0.40660  -0.39012  -0.38732
 Alpha  occ. eigenvalues --   -0.38469  -0.38215  -0.34932
 Alpha virt. eigenvalues --    0.16736   0.19484   0.19834   0.20277   0.20814
 Alpha virt. eigenvalues --    0.21418   0.21783   0.22201   0.23031   0.24186
 Alpha virt. eigenvalues --    0.24314   0.25199   0.26043   0.26831   0.27305

 Mulliken atomic charges:
              1
     1  C   -0.279907
     2  N   -0.791620
     3  C    0.815298
     4  O   -0.612399
     5  C    0.100717
     6  C   -0.484638
     7  C   -0.339576
     8  C   -0.323226
     9  C   -0.367051
    10  C   -0.182715
    11  C   -0.175756
    12  C   -0.354953
    13  C   -0.309910
    14  C   -0.329953
    15  C    0.090664
    16  C   -0.510118
    17  N   -0.787325
    18  C    0.767323
    19  C   -0.595721
    20  O   -0.613435
    21  C    0.820399
    22  O   -0.640998
    23  N   -0.805469
    24  C   -0.275129
    25  N   -0.798687
    26  C    0.766912
    27  C   -0.589884
    28  O   -0.600289
    29  H    0.165194
    30  H    0.216659
    31  H    0.168481
    32  H    0.384313
    33  H    0.136858
    34  H    0.162466
    35  H    0.229339
    36  H    0.160792
    37  H    0.207891
    38  H    0.175068
    39  H    0.157422
    40  H    0.182914
    41  H    0.177219
    42  H    0.202702
    43  H    0.177013
    44  H    0.172949
    45  H    0.163130
    46  H    0.151176
    47  H    0.196466
    48  H    0.174488
    49  H    0.187240
    50  H    0.184217
    51  H    0.150099
    52  H    0.226844
    53  H    0.389304
    54  H    0.211686
    55  H    0.208639
    56  H    0.176508
    57  H    0.396485
    58  H    0.166618
    59  H    0.196703
    60  H    0.185166
    61  H    0.377253
    62  H    0.217921
    63  H    0.181170
    64  H    0.189050
 Sum of Mulliken atomic charges =   0.00000

 Dipole moment (field-independent basis, Debye):
    X=             -0.8543    Y=             -5.3782    Z=             -1.3836  Tot=              5.6187
 Quadrupole moment (field-independent basis, Debye-Ang):
   XX=           -209.1383   YY=           -158.0795   ZZ=           -165.9441
   XY=             16.9385   XZ=             14.0715   YZ=              0.1843

 Normal termination of Gaussian 09 at Thu Dec  5 16:21:11 2019.
