 Gaussian 09, Revision A.02,
 Gaussian 09:  EM64L-G09RevA.02 11-Jun-2009

 ---------------------------------
 #SP HF/6-31G* Geom=(ModRedundant)
 ---------------------------------

 ------------
 paramfit run
 ------------
 Symbolic Z-matrix:
 Charge =  0 Multiplicity = 1

                         Standard orientation:
 ---------------------------------------------------------------------
 Center     Atomic      Atomic             Coordinates (Angstroms)
 Number     Number       Type             X           Y           Z
 ---------------------------------------------------------------------
      1          6    20001001       -2.997140    2.593986    0.553959
      2          7    20001014       -3.440025    1.222316    0.413892
      3          6    20001002       -4.362257    0.903197   -0.524064
      4          8    20001024       -4.676181    1.657082   -1.403185
      5          6    90000001       -4.898190   -0.539438   -0.492984
      6          6    90000002       -5.513833   -0.887490   -1.852280
      7          6    90000002       -3.758562   -1.524803   -0.116282
      8          6    90000002       -2.520417   -1.617885   -1.026209
      9          6    90000002       -1.410857   -0.564991   -0.834038
     10          6    20001004       -0.852846   -0.508956    0.568732
     11          6    20001004        0.255768   -1.074100    1.018559
     12          6    90000002        1.237821   -1.916612    0.240418
     13          6    90000002        2.525588   -1.176959   -0.164714
     14          6    90000002        3.327477   -0.677852    1.044741
     15          6    90000002        4.732103   -0.073132    0.787868
     16          6    90000002        5.288501    0.400770    2.140380
     17          7    20001014        5.594021   -1.115326    0.247071
     18          6    20001002        6.849648   -0.836542   -0.209807
     19          6    20001001        7.466817   -1.911852   -1.074454
     20          8    20001024        7.426305    0.182519    0.051201
     21          6    20001002        4.600100    1.044164   -0.271825
     22          8    20001024        4.589845    0.771311   -1.442029
     23          7    20001014        4.396109    2.302861    0.173201
     24          6    20001001        4.314586    3.404028   -0.764342
     25          7    20001014       -5.893118   -0.693859    0.578324
     26          6    20001002       -7.052352    0.021411    0.643415
     27          6    20001001       -8.091274   -0.523800    1.601281
     28          8    20001024       -7.235152    1.016164    0.000614
     29          1    20001035       -3.795013    3.242269    0.897583
     30          1    20001035       -2.641854    2.961746   -0.397486
     31          1    20001035       -2.182728    2.623171    1.266865
     32          1    20001029       -3.414768    0.649836    1.225011
     33          1    20001034       -4.798770   -0.757220   -2.650182
     34          1    20001034       -5.850284   -1.919938   -1.842680
     35          1    20001034       -6.356799   -0.244476   -2.059322
     36          1    20001034       -4.217688   -2.510767   -0.098927
     37          1    20001034       -3.446422   -1.316812    0.902340
     38          1    20001034       -2.078676   -2.593440   -0.845169
     39          1    20001034       -2.824332   -1.613598   -2.067837
     40          1    20001034       -1.778007    0.415497   -1.108280
     41          1    20001034       -0.622646   -0.797898   -1.541364
     42          1    20001033       -1.434930    0.065226    1.271303
     43          1    20001033        0.500661   -0.920716    2.057915
     44          1    20001034        0.772121   -2.303505   -0.657860
     45          1    20001034        1.502226   -2.784836    0.842804
     46          1    20001034        3.120479   -1.855988   -0.769198
     47          1    20001034        2.272737   -0.346775   -0.811003
     48          1    20001034        3.466671   -1.495990    1.748169
     49          1    20001034        2.744637    0.077471    1.558683
     50          1    20001034        5.440079   -0.464266    2.775454
     51          1    20001034        4.586992    1.056139    2.646103
     52          1    20001034        6.236165    0.905555    2.026960
     53          1    20001029        5.125118   -1.841871   -0.243820
     54          1    20001034        8.539598   -1.792685   -1.074565
     55          1    20001034        7.102760   -1.790264   -2.090232
     56          1    20001034        7.207159   -2.908413   -0.734121
     57          1    20001029        4.647911    2.520202    1.108438
     58          1    20001035        4.029748    4.297330   -0.224156
     59          1    20001035        3.565680    3.191090   -1.512956
     60          1    20001035        5.261325    3.576815   -1.265922
     61          1    20001029       -5.889441   -1.573939    1.044150
     62          1    20001034       -8.766992    0.273577    1.874353
     63          1    20001034       -7.644687   -0.946458    2.494293
     64          1    20001034       -8.659543   -1.303473    1.104307
 ---------------------------------------------------------------------

 SCF Done:  E(RHF) =  -1295.60285280     A.U. after   14 cycles

 The electronic state is 1-A.
 Alpha  occ. eigenvalues --  -20.52399 -20.52267 -20.51868 -20.51648 -15.59024
 Alpha  occ. eigenvalues --  -15.58169 -15.57836 -15.57773 -11.34973 -11.34474
 Alpha  occ. eigenvalues --  -11.33953 -11.33598 -11.28907 -11.28856 -11.25355
 Alpha  occ. eigenvalues --  -11.25231 -11.24272 -11.23759 -11.23626 -11.23217
 Alpha  occ. eigenvalues --  -11.23049 -11.22950 -11.22772 -11.22759 -11.22707
 Alpha  occ. eigenvalues --  -11.22240 -11.22062 -11.20707  -1.39613  -1.39547
 Alpha  occ. eigenvalues --   -1.38339  -1.38266  -1.24739  -1.23805  -1.22880
 Alpha  occ. eigenvalues --   -1.22703  -1.11245  -1.09506  -1.07471  -1.04424
 Alpha  occ. eigenvalues --   -1.01258  -0.99220  -0.98842  -0.95874  -0.95417
 Alpha  occ. eigenvalues --   -0.94843  -0.92536  -0.87362  -0.86030  -0.83453
 Alpha  occ. eigenvalues --   -0.81516  -0.79741  -0.78646  -0.77518  -0.77136
 Alpha  occ. eigenvalues --   -0.72328  -0.71542  -0.70860  -0.68534  -0.68251
 Alpha  occ. eigenvalues --   -0.67276  -0.65696  -0.64771  -0.64097  -0.63972
 Alpha  occ. eigenvalues --   -0.62586  -0.62397  -0.61889  -0.61642  -0.61393
 Alpha  occ. eigenvalues --   -0.60741  -0.59874  -0.59397  -0.58929  -0.58418
 Alpha  occ. eigenvalues --   -0.58119  -0.57820  -0.56726  -0.56572  -0.56418
 Alpha  occ. eigenvalues --   -0.55796  -0.55184  -0.55028  -0.54920  -0.54247
 Alpha  occ. eigenvalues --   -0.53386  -0.53032  -0.52505  -0.51890  -0.51667
 Alpha  occ. eigenvalues --   -0.50553  -0.50302  -0.50012  -0.49717  -0.48922
 Alpha  occ. eigenvalues --   -0.48685  -0.47283  -0.46787  -0.45184  -0.42469
 Alpha  occ. eigenvalues --   -0.41771  -0.41289  -0.40764  -0.39096  -0.38759
 Alpha  occ. eigenvalues --   -0.38555  -0.38304  -0.35190
 Alpha virt. eigenvalues --    0.16491   0.19334   0.19413   0.20001   0.20333
 Alpha virt. eigenvalues --    0.21332   0.21577   0.21803   0.22907   0.23521
 Alpha virt. eigenvalues --    0.25129   0.25345   0.26053   0.26872   0.27408

 Mulliken atomic charges:
              1
     1  C   -0.278193
     2  N   -0.804138
     3  C    0.824151
     4  O   -0.598225
     5  C    0.085545
     6  C   -0.466572
     7  C   -0.337886
     8  C   -0.315593
     9  C   -0.351148
    10  C   -0.165359
    11  C   -0.174590
    12  C   -0.354331
    13  C   -0.310991
    14  C   -0.329291
    15  C    0.091196
    16  C   -0.509622
    17  N   -0.787548
    18  C    0.767231
    19  C   -0.595784
    20  O   -0.613447
    21  C    0.820338
    22  O   -0.639190
    23  N   -0.806397
    24  C   -0.275736
    25  N   -0.823985
    26  C    0.746290
    27  C   -0.588955
    28  O   -0.579772
    29  H    0.184732
    30  H    0.202961
    31  H    0.163873
    32  H    0.383750
    33  H    0.177337
    34  H    0.142206
    35  H    0.230049
    36  H    0.165196
    37  H    0.160575
    38  H    0.168064
    39  H    0.178402
    40  H    0.203924
    41  H    0.175140
    42  H    0.153890
    43  H    0.171445
    44  H    0.177958
    45  H    0.162218
    46  H    0.152811
    47  H    0.199139
    48  H    0.173915
    49  H    0.183816
    50  H    0.183978
    51  H    0.148056
    52  H    0.227435
    53  H    0.389647
    54  H    0.211801
    55  H    0.209544
    56  H    0.176434
    57  H    0.395601
    58  H    0.165278
    59  H    0.198937
    60  H    0.185943
    61  H    0.378540
    62  H    0.218166
    63  H    0.174622
    64  H    0.196619
 Sum of Mulliken atomic charges =   0.00000

 Dipole moment (field-independent basis, Debye):
    X=             -0.4336    Y=             -5.4197    Z=              5.8636  Tot=              7.9964
 Quadrupole moment (field-independent basis, Debye-Ang):
   XX=           -212.4707   YY=           -159.7280   ZZ=           -171.2929
   XY=             21.4371   XZ=            -15.7634   YZ=             10.1525

 Normal termination of Gaussian 09 at Thu Dec  5 16:10:39 2019.
