 Gaussian 09, Revision A.02,
 Gaussian 09:  EM64L-G09RevA.02 11-Jun-2009

 ---------------------------------
 #SP HF/6-31G* Geom=(ModRedundant)
 ---------------------------------

 ------------
 paramfit run
 ------------
 Symbolic Z-matrix:
 Charge =  0 Multiplicity = 1

                         Standard orientation:
 ---------------------------------------------------------------------
 Center     Atomic      Atomic             Coordinates (Angstroms)
 Number     Number       Type             X           Y           Z
 ---------------------------------------------------------------------
      1          6    20001001       -3.593144    2.824993    0.605212
      2          7    20001014       -3.957423    1.423657    0.576843
      3          6    20001002       -4.334328    0.847647   -0.588603
      4          8    20001024       -4.171759    1.377770   -1.652693
      5          6    90000001       -4.863690   -0.594936   -0.498520
      6          6    90000002       -5.472410   -1.003089   -1.844148
      7          6    90000002       -3.720988   -1.558022   -0.076265
      8          6    90000002       -2.478887   -1.683553   -0.976854
      9          6    90000002       -1.374974   -0.618171   -0.825282
     10          6    20001004       -0.822702   -0.500209    0.575916
     11          6    20001004        0.286755   -1.040512    1.053341
     12          6    90000002        1.275726   -1.910451    0.315169
     13          6    90000002        2.561625   -1.182424   -0.116115
     14          6    90000002        3.356470   -0.628796    1.074107
     15          6    90000002        4.759271   -0.028751    0.797085
     16          6    90000002        5.308192    0.504567    2.130393
     17          7    20001014        5.628109   -1.088733    0.304045
     18          6    20001002        6.884204   -0.823499   -0.159567
     19          6    20001001        7.509713   -1.931432   -0.975672
     20          8    20001024        7.455112    0.208437    0.060239
     21          6    20001002        4.626229    1.042101   -0.309395
     22          8    20001024        4.621800    0.719975   -1.467041
     23          7    20001014        4.414676    2.317495    0.081241
     24          6    20001001        4.331710    3.377639   -0.902331
     25          7    20001014       -5.862062   -0.708695    0.574673
     26          6    20001002       -7.024842    0.003124    0.605164
     27          6    20001001       -8.064955   -0.506078    1.581381
     28          8    20001024       -7.209739    0.968924   -0.079805
     29          1    20001035       -4.438905    3.466057    0.384585
     30          1    20001035       -2.818779    3.015606   -0.123312
     31          1    20001035       -3.213159    3.063480    1.590650
     32          1    20001029       -4.336461    1.034058    1.408003
     33          1    20001034       -4.754852   -0.903242   -2.644194
     34          1    20001034       -5.804110   -2.035808   -1.792135
     35          1    20001034       -6.317532   -0.373450   -2.081317
     36          1    20001034       -4.175607   -2.544559   -0.018925
     37          1    20001034       -3.413789   -1.305660    0.933795
     38          1    20001034       -2.033341   -2.648455   -0.753083
     39          1    20001034       -2.778755   -1.724763   -2.018850
     40          1    20001034       -1.745589    0.348075   -1.142105
     41          1    20001034       -0.582940   -0.876993   -1.519205
     42          1    20001033       -1.410173    0.100365    1.251417
     43          1    20001033        0.526881   -0.842153    2.086180
     44          1    20001034        0.815330   -2.337201   -0.567659
     45          1    20001034        1.541799   -2.751156    0.954712
     46          1    20001034        3.162006   -1.883542   -0.689135
     47          1    20001034        2.307452   -0.381526   -0.797869
     48          1    20001034        3.496709   -1.415786    1.812018
     49          1    20001034        2.768140    0.144777    1.553483
     50          1    20001034        5.461296   -0.332110    2.802042
     51          1    20001034        4.601688    1.177361    2.605349
     52          1    20001034        6.253943    1.008642    1.999234
     53          1    20001029        5.164494   -1.837620   -0.157410
     54          1    20001034        8.581923   -1.807235   -0.976854
     55          1    20001034        7.149061   -1.854641   -1.997023
     56          1    20001034        7.253349   -2.913947   -0.594457
     57          1    20001029        4.661820    2.575384    1.007374
     58          1    20001035        4.040633    4.291603   -0.401467
     59          1    20001035        3.586723    3.129656   -1.644035
     60          1    20001035        5.279588    3.533601   -1.407264
     61          1    20001029       -5.856126   -1.568267    1.077314
     62          1    20001034       -8.745418    0.298882    1.817983
     63          1    20001034       -7.619900   -0.888459    2.493116
     64          1    20001034       -8.627664   -1.308777    1.115728
 ---------------------------------------------------------------------

 SCF Done:  E(RHF) =  -1295.62108888     A.U. after   14 cycles

 The electronic state is 1-A.
 Alpha  occ. eigenvalues --  -20.53433 -20.52088 -20.51838 -20.51637 -15.59509
 Alpha  occ. eigenvalues --  -15.57943 -15.57690 -15.57569 -11.35789 -11.34295
 Alpha  occ. eigenvalues --  -11.33824 -11.33724 -11.28976 -11.28620 -11.25039
 Alpha  occ. eigenvalues --  -11.25016 -11.24220 -11.24053 -11.23466 -11.22841
 Alpha  occ. eigenvalues --  -11.22651 -11.22551 -11.22433 -11.22352 -11.22142
 Alpha  occ. eigenvalues --  -11.21870 -11.21855 -11.20725  -1.40363  -1.39409
 Alpha  occ. eigenvalues --   -1.38643  -1.38133  -1.25287  -1.23596  -1.22655
 Alpha  occ. eigenvalues --   -1.22240  -1.10871  -1.09312  -1.07234  -1.04268
 Alpha  occ. eigenvalues --   -1.01228  -0.99288  -0.98764  -0.95622  -0.95180
 Alpha  occ. eigenvalues --   -0.94624  -0.92248  -0.87284  -0.85765  -0.82937
 Alpha  occ. eigenvalues --   -0.81384  -0.79537  -0.78776  -0.77195  -0.76919
 Alpha  occ. eigenvalues --   -0.71982  -0.71306  -0.71085  -0.68828  -0.68040
 Alpha  occ. eigenvalues --   -0.66824  -0.65828  -0.64583  -0.63971  -0.63761
 Alpha  occ. eigenvalues --   -0.62602  -0.62365  -0.61805  -0.61461  -0.61190
 Alpha  occ. eigenvalues --   -0.60894  -0.59907  -0.59372  -0.58753  -0.58373
 Alpha  occ. eigenvalues --   -0.58278  -0.57848  -0.56549  -0.56466  -0.56264
 Alpha  occ. eigenvalues --   -0.55565  -0.54916  -0.54800  -0.54642  -0.54042
 Alpha  occ. eigenvalues --   -0.53142  -0.52696  -0.52394  -0.52189  -0.51609
 Alpha  occ. eigenvalues --   -0.50874  -0.50346  -0.49818  -0.49381  -0.48633
 Alpha  occ. eigenvalues --   -0.48435  -0.47093  -0.46471  -0.44659  -0.42727
 Alpha  occ. eigenvalues --   -0.41821  -0.41550  -0.41104  -0.39167  -0.38882
 Alpha  occ. eigenvalues --   -0.38457  -0.38325  -0.34646
 Alpha virt. eigenvalues --    0.17183   0.18951   0.19607   0.19898   0.20325
 Alpha virt. eigenvalues --    0.21548   0.21924   0.22794   0.23123   0.23792
 Alpha virt. eigenvalues --    0.25379   0.25608   0.26420   0.26999   0.27552

 Mulliken atomic charges:
              1
     1  C   -0.279624
     2  N   -0.784149
     3  C    0.824432
     4  O   -0.623100
     5  C    0.091496
     6  C   -0.468032
     7  C   -0.332470
     8  C   -0.314084
     9  C   -0.370151
    10  C   -0.177739
    11  C   -0.176398
    12  C   -0.353681
    13  C   -0.310563
    14  C   -0.329105
    15  C    0.091078
    16  C   -0.509593
    17  N   -0.787608
    18  C    0.767288
    19  C   -0.595712
    20  O   -0.613780
    21  C    0.820556
    22  O   -0.639290
    23  N   -0.806046
    24  C   -0.275631
    25  N   -0.838441
    26  C    0.748399
    27  C   -0.588868
    28  O   -0.590145
    29  H    0.186917
    30  H    0.199920
    31  H    0.162098
    32  H    0.387169
    33  H    0.194739
    34  H    0.142337
    35  H    0.215510
    36  H    0.161736
    37  H    0.177810
    38  H    0.165696
    39  H    0.179907
    40  H    0.206588
    41  H    0.176314
    42  H    0.180538
    43  H    0.169830
    44  H    0.176717
    45  H    0.160566
    46  H    0.151388
    47  H    0.199366
    48  H    0.173224
    49  H    0.184854
    50  H    0.183553
    51  H    0.148268
    52  H    0.226799
    53  H    0.389748
    54  H    0.211298
    55  H    0.209529
    56  H    0.176277
    57  H    0.395322
    58  H    0.164937
    59  H    0.199687
    60  H    0.185175
    61  H    0.381579
    62  H    0.218688
    63  H    0.176423
    64  H    0.200453
 Sum of Mulliken atomic charges =   0.00000

 Dipole moment (field-independent basis, Debye):
    X=             -2.2538    Y=             -4.6588    Z=              6.4936  Tot=              8.3037
 Quadrupole moment (field-independent basis, Debye-Ang):
   XX=           -198.5875   YY=           -156.6206   ZZ=           -173.1040
   XY=             15.6835   XZ=            -18.4037   YZ=             10.1971

 Normal termination of Gaussian 09 at Thu Dec  5 16:57:09 2019.
