 Gaussian 09, Revision A.02,
 Gaussian 09:  EM64L-G09RevA.02 11-Jun-2009

 ---------------------------------
 #SP HF/6-31G* Geom=(ModRedundant)
 ---------------------------------

 ------------
 paramfit run
 ------------
 Symbolic Z-matrix:
 Charge =  0 Multiplicity = 1

                         Standard orientation:
 ---------------------------------------------------------------------
 Center     Atomic      Atomic             Coordinates (Angstroms)
 Number     Number       Type             X           Y           Z
 ---------------------------------------------------------------------
      1          6    20001001       -2.441833    2.416091   -0.280011
      2          7    20001014       -3.055707    1.127201   -0.523254
      3          6    20001002       -4.387810    0.969130   -0.342637
      4          8    20001024       -5.134963    1.897749   -0.204159
      5          6    90000001       -4.928052   -0.467418   -0.460341
      6          6    90000002       -5.551723   -0.669193   -1.845318
      7          6    90000002       -3.789574   -1.489802   -0.195388
      8          6    90000002       -2.556398   -1.489946   -1.116752
      9          6    90000002       -1.442608   -0.465893   -0.821077
     10          6    20001004       -0.877252   -0.558938    0.576777
     11          6    20001004        0.231891   -1.171030    0.958749
     12          6    90000002        1.207327   -1.929645    0.091120
     13          6    90000002        2.495295   -1.154815   -0.241059
     14          6    90000002        3.304909   -0.787556    1.009766
     15          6    90000002        4.710071   -0.162782    0.810219
     16          6    90000002        5.274855    0.165010    2.201988
     17          7    20001014        5.565971   -1.144598    0.158295
     18          6    20001002        6.820102   -0.822566   -0.273571
     19          6    20001001        7.429496   -1.802676   -1.249702
     20          8    20001024        7.401247    0.161966    0.089894
     21          6    20001002        4.576116    1.059977   -0.125539
     22          8    20001024        4.559023    0.911579   -1.317854
     23          7    20001014        4.378313    2.265482    0.450321
     24          6    20001001        4.295409    3.459241   -0.365931
     25          7    20001014       -5.917959   -0.730979    0.594199
     26          6    20001002       -7.074617   -0.023550    0.740329
     27          6    20001001       -8.110310   -0.663710    1.641249
     28          8    20001024       -7.257617    1.033682    0.206558
     29          1    20001035       -2.487951    2.693597    0.766800
     30          1    20001035       -2.946329    3.175703   -0.858973
     31          1    20001035       -1.405650    2.369586   -0.590682
     32          1    20001029       -2.490801    0.320986   -0.392169
     33          1    20001034       -4.840353   -0.457654   -2.628989
     34          1    20001034       -5.891323   -1.696076   -1.942382
     35          1    20001034       -6.393738   -0.005842   -1.979113
     36          1    20001034       -4.251665   -2.470960   -0.279195
     37          1    20001034       -3.471581   -1.390755    0.837739
     38          1    20001034       -2.116766   -2.480243   -1.041567
     39          1    20001034       -2.865627   -1.375494   -2.150509
     40          1    20001034       -1.808112    0.538909   -0.988832
     41          1    20001034       -0.658754   -0.625223   -1.553211
     42          1    20001033       -1.453946   -0.060249    1.338909
     43          1    20001033        0.482576   -1.128294    2.007125
     44          1    20001034        0.735838   -2.218854   -0.840288
     45          1    20001034        1.472117   -2.857013    0.597549
     46          1    20001034        3.084972   -1.768105   -0.916728
     47          1    20001034        2.241715   -0.260694   -0.795203
     48          1    20001034        3.445162   -1.675408    1.622614
     49          1    20001034        2.727055   -0.088913    1.603343
     50          1    20001034        5.426996   -0.762331    2.741870
     51          1    20001034        4.577981    0.765419    2.777538
     52          1    20001034        6.223488    0.676500    2.137080
     53          1    20001029        5.092308   -1.814363   -0.403639
     54          1    20001034        8.502628   -1.686890   -1.243106
     55          1    20001034        7.060623   -1.574135   -2.245104
     56          1    20001034        7.168493   -2.828807   -1.014512
     57          1    20001029        4.635572    2.382740    1.401834
     58          1    20001035        4.016113    4.291582    0.266621
     59          1    20001035        3.542024    3.328025   -1.128702
     60          1    20001035        5.240100    3.681344   -0.851711
     61          1    20001029       -5.914629   -1.655127    0.964990
     62          1    20001034       -8.782144    0.102292    2.000212
     63          1    20001034       -7.660472   -1.178968    2.482501
     64          1    20001034       -8.683533   -1.385415    1.068224
 ---------------------------------------------------------------------

 SCF Done:  E(RHF) =  -1295.41801041     A.U. after   15 cycles

 The electronic state is 1-A.
 Alpha  occ. eigenvalues --  -20.52521 -20.52206 -20.49902 -20.49838 -15.58478
 Alpha  occ. eigenvalues --  -15.58066 -15.57683 -15.54829 -11.34730 -11.34283
 Alpha  occ. eigenvalues --  -11.33017 -11.32333 -11.29188 -11.28705 -11.25531
 Alpha  occ. eigenvalues --  -11.25315 -11.24493 -11.24411 -11.24185 -11.24071
 Alpha  occ. eigenvalues --  -11.23880 -11.23706 -11.23350 -11.22936 -11.22354
 Alpha  occ. eigenvalues --  -11.22317 -11.21938 -11.21552  -1.39910  -1.38636
 Alpha  occ. eigenvalues --   -1.38339  -1.36263  -1.26398  -1.24105  -1.23191
 Alpha  occ. eigenvalues --   -1.23062  -1.12423  -1.10095  -1.07993  -1.05791
 Alpha  occ. eigenvalues --   -1.01774  -0.99354  -0.98775  -0.97204  -0.95548
 Alpha  occ. eigenvalues --   -0.95335  -0.93827  -0.88812  -0.86798  -0.85156
 Alpha  occ. eigenvalues --   -0.83200  -0.80073  -0.79102  -0.77903  -0.77439
 Alpha  occ. eigenvalues --   -0.73074  -0.71936  -0.70527  -0.68614  -0.67611
 Alpha  occ. eigenvalues --   -0.66792  -0.65191  -0.64696  -0.64419  -0.63610
 Alpha  occ. eigenvalues --   -0.62906  -0.62086  -0.62061  -0.61930  -0.61531
 Alpha  occ. eigenvalues --   -0.61218  -0.59987  -0.59431  -0.59316  -0.59092
 Alpha  occ. eigenvalues --   -0.57685  -0.57139  -0.56975  -0.56750  -0.56372
 Alpha  occ. eigenvalues --   -0.55676  -0.55470  -0.55361  -0.55148  -0.54146
 Alpha  occ. eigenvalues --   -0.53734  -0.53454  -0.52886  -0.52336  -0.51022
 Alpha  occ. eigenvalues --   -0.50366  -0.50294  -0.50126  -0.49469  -0.48934
 Alpha  occ. eigenvalues --   -0.48151  -0.47268  -0.46109  -0.45617  -0.42288
 Alpha  occ. eigenvalues --   -0.42081  -0.41550  -0.39399  -0.38876  -0.38316
 Alpha  occ. eigenvalues --   -0.37891  -0.36148  -0.34775
 Alpha virt. eigenvalues --    0.15614   0.19096   0.19913   0.20813   0.21034
 Alpha virt. eigenvalues --    0.21256   0.21612   0.22570   0.23365   0.23408
 Alpha virt. eigenvalues --    0.25020   0.25225   0.25661   0.26763   0.26931

 Mulliken atomic charges:
              1
     1  C   -0.286983
     2  N   -0.963183
     3  C    0.786552
     4  O   -0.557100
     5  C    0.130498
     6  C   -0.485553
     7  C   -0.395563
     8  C   -0.326063
     9  C   -0.551754
    10  C   -0.172384
    11  C   -0.175473
    12  C   -0.358099
    13  C   -0.311567
    14  C   -0.330256
    15  C    0.091207
    16  C   -0.509993
    17  N   -0.787357
    18  C    0.767198
    19  C   -0.595898
    20  O   -0.612810
    21  C    0.819769
    22  O   -0.639684
    23  N   -0.806526
    24  C   -0.275774
    25  N   -0.820301
    26  C    0.738143
    27  C   -0.586634
    28  O   -0.545777
    29  H    0.176200
    30  H    0.214180
    31  H    0.170290
    32  H    0.523370
    33  H    0.167901
    34  H    0.153875
    35  H    0.231897
    36  H    0.173971
    37  H    0.193491
    38  H    0.188571
    39  H    0.189359
    40  H    0.294986
    41  H    0.208351
    42  H    0.193851
    43  H    0.180623
    44  H    0.179167
    45  H    0.166047
    46  H    0.155218
    47  H    0.197355
    48  H    0.175542
    49  H    0.184129
    50  H    0.184769
    51  H    0.148973
    52  H    0.228277
    53  H    0.389246
    54  H    0.212607
    55  H    0.209292
    56  H    0.176679
    57  H    0.396539
    58  H    0.166633
    59  H    0.196823
    60  H    0.186917
    61  H    0.373546
    62  H    0.215758
    63  H    0.169791
    64  H    0.187137
 Sum of Mulliken atomic charges =   0.00000

 Dipole moment (field-independent basis, Debye):
    X=              1.7523    Y=             -6.4467    Z=              2.4135  Tot=              7.1032
 Quadrupole moment (field-independent basis, Debye-Ang):
   XX=           -227.1096   YY=           -162.1375   ZZ=           -167.5799
   XY=             26.3061   XZ=              0.1421   YZ=              5.4655

 Normal termination of Gaussian 09 at Thu Dec  5 16:45:14 2019.
