 Gaussian 09, Revision A.02,
 Gaussian 09:  EM64L-G09RevA.02 11-Jun-2009

 ---------------------------------
 #SP HF/6-31G* Geom=(ModRedundant)
 ---------------------------------

 ------------
 paramfit run
 ------------
 Symbolic Z-matrix:
 Charge =  0 Multiplicity = 1

                         Standard orientation:
 ---------------------------------------------------------------------
 Center     Atomic      Atomic             Coordinates (Angstroms)
 Number     Number       Type             X           Y           Z
 ---------------------------------------------------------------------
      1          6    20001001       -3.703316    3.119997   -0.900764
      2          7    20001014       -4.322598    1.825790   -1.097652
      3          6    20001002       -4.333368    0.922300   -0.089833
      4          8    20001024       -4.052693    1.212538    1.040091
      5          6    90000001       -4.860135   -0.481984   -0.436082
      6          6    90000002       -5.496444   -0.462072   -1.829838
      7          6    90000002       -3.708515   -1.520395   -0.351970
      8          6    90000002       -2.485296   -1.355393   -1.271831
      9          6    90000002       -1.378933   -0.380336   -0.822543
     10          6    20001004       -0.797782   -0.693877    0.536219
     11          6    20001004        0.321563   -1.347011    0.803125
     12          6    90000002        1.295390   -1.942058   -0.185477
     13          6    90000002        2.571761   -1.108191   -0.397864
     14          6    90000002        3.390873   -0.940736    0.888966
     15          6    90000002        4.787374   -0.275187    0.781845
     16          6    90000002        5.363589   -0.172593    2.203430
     17          7    20001014        5.646257   -1.127082   -0.029406
     18          6    20001002        6.892357   -0.724006   -0.413879
     19          6    20001001        7.501287   -1.524148   -1.542498
     20          8    20001024        7.467260    0.194695    0.100534
     21          6    20001002        4.630967    1.082385    0.059861
     22          8    20001024        4.602678    1.130639   -1.140472
     23          7    20001014        4.427014    2.175153    0.826830
     24          6    20001001        4.323224    3.485192    0.217545
     25          7    20001014       -5.835997   -0.926015    0.569881
     26          6    20001002       -6.998198   -0.265698    0.839959
     27          6    20001001       -8.017632   -1.056675    1.633198
     28          8    20001024       -7.197666    0.862312    0.487900
     29          1    20001035       -2.631925    3.036960   -0.758717
     30          1    20001035       -4.128617    3.599630   -0.031400
     31          1    20001035       -3.900603    3.733544   -1.770816
     32          1    20001029       -4.333450    1.461189   -2.021359
     33          1    20001034       -4.795669   -0.116917   -2.574630
     34          1    20001034       -5.826556   -1.463228   -2.090510
     35          1    20001034       -6.346570    0.204228   -1.845898
     36          1    20001034       -4.161427   -2.480059   -0.591002
     37          1    20001034       -3.380551   -1.587760    0.680592
     38          1    20001034       -2.034796   -2.339398   -1.363493
     39          1    20001034       -2.806682   -1.077208   -2.270178
     40          1    20001034       -1.756447    0.633983   -0.820487
     41          1    20001034       -0.601344   -0.408602   -1.577785
     42          1    20001033       -1.371381   -0.333291    1.374715
     43          1    20001033        0.582963   -1.473214    1.842117
     44          1    20001034        0.816974   -2.080721   -1.147432
     45          1    20001034        1.575022   -2.936523    0.160120
     46          1    20001034        3.160433   -1.595807   -1.169919
     47          1    20001034        2.303169   -0.138593   -0.796070
     48          1    20001034        3.546714   -1.915083    1.347110
     49          1    20001034        2.812277   -0.355366    1.593889
     50          1    20001034        5.530941   -1.173831    2.583029
     51          1    20001034        4.666796    0.317410    2.875560
     52          1    20001034        6.306203    0.353804    2.214646
     53          1    20001029        5.173494   -1.701563   -0.689086
     54          1    20001034        8.573189   -1.398321   -1.526555
     55          1    20001034        7.119506   -1.140387   -2.483825
     56          1    20001034        7.253299   -2.577931   -1.475975
     57          1    20001029        4.693194    2.138371    1.782395
     58          1    20001035        4.042202    4.199612    0.980140
     59          1    20001035        3.563128    3.471496   -0.549718
     60          1    20001035        5.260365    3.794845   -0.233717
     61          1    20001029       -5.819275   -1.898229    0.784513
     62          1    20001034       -8.693389   -0.367627    2.118522
     63          1    20001034       -7.553610   -1.697131    2.374851
     64          1    20001034       -8.589532   -1.681760    0.954963
 ---------------------------------------------------------------------

 SCF Done:  E(RHF) =  -1295.60860283     A.U. after   14 cycles

 The electronic state is 1-A.
 Alpha  occ. eigenvalues --  -20.52125 -20.52061 -20.51709 -20.51366 -15.58336
 Alpha  occ. eigenvalues --  -15.57983 -15.57763 -15.57601 -11.34529 -11.34335
 Alpha  occ. eigenvalues --  -11.33782 -11.33644 -11.29130 -11.28632 -11.25098
 Alpha  occ. eigenvalues --  -11.24999 -11.23891 -11.23503 -11.23467 -11.23124
 Alpha  occ. eigenvalues --  -11.22732 -11.22729 -11.22612 -11.22529 -11.22525
 Alpha  occ. eigenvalues --  -11.22333 -11.22099 -11.21810  -1.39462  -1.39224
 Alpha  occ. eigenvalues --   -1.38190  -1.38016  -1.23859  -1.23627  -1.22731
 Alpha  occ. eigenvalues --   -1.22700  -1.11053  -1.09426  -1.07313  -1.04526
 Alpha  occ. eigenvalues --   -1.01053  -0.99337  -0.98908  -0.95865  -0.94843
 Alpha  occ. eigenvalues --   -0.94416  -0.92622  -0.88004  -0.85933  -0.83032
 Alpha  occ. eigenvalues --   -0.81256  -0.79565  -0.78302  -0.77136  -0.76956
 Alpha  occ. eigenvalues --   -0.72059  -0.71356  -0.70960  -0.68365  -0.67975
 Alpha  occ. eigenvalues --   -0.66872  -0.65317  -0.64515  -0.63851  -0.63670
 Alpha  occ. eigenvalues --   -0.62279  -0.62148  -0.62012  -0.61547  -0.61235
 Alpha  occ. eigenvalues --   -0.60993  -0.60093  -0.59300  -0.58771  -0.58225
 Alpha  occ. eigenvalues --   -0.57745  -0.57189  -0.56768  -0.56479  -0.56247
 Alpha  occ. eigenvalues --   -0.55568  -0.55445  -0.54979  -0.54818  -0.54276
 Alpha  occ. eigenvalues --   -0.53837  -0.53170  -0.52772  -0.52138  -0.51657
 Alpha  occ. eigenvalues --   -0.50936  -0.50389  -0.49874  -0.49381  -0.48757
 Alpha  occ. eigenvalues --   -0.48544  -0.47149  -0.46511  -0.44771  -0.41603
 Alpha  occ. eigenvalues --   -0.41369  -0.41142  -0.40836  -0.38925  -0.38755
 Alpha  occ. eigenvalues --   -0.38378  -0.38210  -0.34685
 Alpha virt. eigenvalues --    0.16925   0.19571   0.19718   0.20206   0.20746
 Alpha virt. eigenvalues --    0.21506   0.21907   0.22368   0.23139   0.24326
 Alpha virt. eigenvalues --    0.24515   0.25258   0.26164   0.26929   0.27333

 Mulliken atomic charges:
              1
     1  C   -0.279419
     2  N   -0.791639
     3  C    0.820519
     4  O   -0.619222
     5  C    0.109695
     6  C   -0.505212
     7  C   -0.341105
     8  C   -0.322097
     9  C   -0.364744
    10  C   -0.183386
    11  C   -0.176983
    12  C   -0.354338
    13  C   -0.309705
    14  C   -0.329847
    15  C    0.090608
    16  C   -0.510098
    17  N   -0.787346
    18  C    0.767346
    19  C   -0.595688
    20  O   -0.613589
    21  C    0.820507
    22  O   -0.641062
    23  N   -0.805332
    24  C   -0.275054
    25  N   -0.798042
    26  C    0.763245
    27  C   -0.590057
    28  O   -0.600690
    29  H    0.165388
    30  H    0.215327
    31  H    0.168482
    32  H    0.386978
    33  H    0.142363
    34  H    0.166549
    35  H    0.230481
    36  H    0.158827
    37  H    0.210257
    38  H    0.173610
    39  H    0.159340
    40  H    0.182143
    41  H    0.176070
    42  H    0.207401
    43  H    0.176006
    44  H    0.172602
    45  H    0.162258
    46  H    0.150512
    47  H    0.196565
    48  H    0.174204
    49  H    0.187568
    50  H    0.184059
    51  H    0.150159
    52  H    0.226566
    53  H    0.389360
    54  H    0.211470
    55  H    0.208608
    56  H    0.176458
    57  H    0.396378
    58  H    0.166467
    59  H    0.196926
    60  H    0.184847
    61  H    0.378428
    62  H    0.218052
    63  H    0.182138
    64  H    0.189889
 Sum of Mulliken atomic charges =   0.00000

 Dipole moment (field-independent basis, Debye):
    X=             -1.5128    Y=             -5.1526    Z=             -1.4701  Tot=              5.5677
 Quadrupole moment (field-independent basis, Debye-Ang):
   XX=           -204.7352   YY=           -157.3411   ZZ=           -165.6367
   XY=             15.1261   XZ=             14.5272   YZ=              0.0694

 Normal termination of Gaussian 09 at Thu Dec  5 16:26:18 2019.
