 Gaussian 09, Revision A.02,
 Gaussian 09:  EM64L-G09RevA.02 11-Jun-2009

 ---------------------------------
 #SP HF/6-31G* Geom=(ModRedundant)
 ---------------------------------

 ------------
 paramfit run
 ------------
 Symbolic Z-matrix:
 Charge =  0 Multiplicity = 1

                         Standard orientation:
 ---------------------------------------------------------------------
 Center     Atomic      Atomic             Coordinates (Angstroms)
 Number     Number       Type             X           Y           Z
 ---------------------------------------------------------------------
      1          6    20001001       -4.534310    3.082077    0.263897
      2          7    20001014       -4.848180    1.670415    0.340991
      3          6    20001002       -4.293776    0.806488   -0.541265
      4          8    20001024       -3.376718    1.110542   -1.252813
      5          6    90000001       -4.809180   -0.643189   -0.494568
      6          6    90000002       -5.414849   -1.016388   -1.851671
      7          6    90000002       -3.656985   -1.607528   -0.102013
      8          6    90000002       -2.414338   -1.693851   -1.006454
      9          6    90000002       -1.320621   -0.622944   -0.823211
     10          6    20001004       -0.768568   -0.542011    0.580699
     11          6    20001004        0.346354   -1.085765    1.041175
     12          6    90000002        1.343150   -1.923460    0.276702
     13          6    90000002        2.621697   -1.170396   -0.132899
     14          6    90000002        3.411980   -0.645311    1.073191
     15          6    90000002        4.808760   -0.023694    0.813876
     16          6    90000002        5.353421    0.474402    2.162466
     17          7    20001014        5.687420   -1.059893    0.288730
     18          6    20001002        6.940594   -0.768700   -0.167141
     19          6    20001001        7.576182   -1.845419   -1.016557
     20          8    20001024        7.501699    0.261583    0.083499
     21          6    20001002        4.664682    1.078735   -0.259725
     22          8    20001024        4.662574    0.791668   -1.426566
     23          7    20001014        4.441137    2.339661    0.169314
     24          6    20001001        4.347318    3.428159   -0.781776
     25          7    20001014       -5.805691   -0.798900    0.575082
     26          6    20001002       -6.975241   -0.099559    0.627490
     27          6    20001001       -8.009753   -0.647988    1.588286
     28          8    20001024       -7.169877    0.884649   -0.027942
     29          1    20001035       -4.913322    3.530273   -0.647376
     30          1    20001035       -3.463450    3.220060    0.294596
     31          1    20001035       -4.976300    3.581533    1.116858
     32          1    20001029       -5.735394    1.419994    0.710350
     33          1    20001034       -4.698821   -0.885531   -2.648613
     34          1    20001034       -5.736567   -2.053353   -1.830731
     35          1    20001034       -6.266145   -0.388048   -2.069404
     36          1    20001034       -4.102057   -2.599680   -0.074307
     37          1    20001034       -3.351549   -1.382820    0.915088
     38          1    20001034       -1.959383   -2.660729   -0.812082
     39          1    20001034       -2.714495   -1.706478   -2.049105
     40          1    20001034       -1.700723    0.348811   -1.110579
     41          1    20001034       -0.526601   -0.853062   -1.524931
     42          1    20001033       -1.361335    0.032215    1.274245
     43          1    20001033        0.585254   -0.916366    2.079439
     44          1    20001034        0.886287   -2.327787   -0.618430
     45          1    20001034        1.617725   -2.780484    0.890473
     46          1    20001034        3.228409   -1.848083   -0.727050
     47          1    20001034        2.359377   -0.351771   -0.790068
     48          1    20001034        3.560277   -1.452828    1.786956
     49          1    20001034        2.816559    0.107737    1.575925
     50          1    20001034        5.515015   -0.380652    2.808493
     51          1    20001034        4.640798    1.125717    2.657783
     52          1    20001034        6.294191    0.991293    2.046222
     53          1    20001029        5.230719   -1.798943   -0.194944
     54          1    20001034        8.647148   -1.710921   -1.014397
     55          1    20001034        7.214122   -1.741316   -2.034987
     56          1    20001034        7.329535   -2.841416   -0.665078
     57          1    20001029        4.686410    2.571848    1.102716
     58          1    20001035        4.047801    4.323744   -0.253440
     59          1    20001035        3.604253    3.195510   -1.530344
     60          1    20001035        5.293312    3.608414   -1.282131
     61          1    20001029       -5.791151   -1.673153    1.051543
     62          1    20001034       -8.697768    0.142871    1.849338
     63          1    20001034       -7.560429   -1.053409    2.487894
     64          1    20001034       -8.565030   -1.441652    1.098829
 ---------------------------------------------------------------------

 SCF Done:  E(RHF) =  -1295.59035373     A.U. after   14 cycles

 The electronic state is 1-A.
 Alpha  occ. eigenvalues --  -20.54993 -20.51744 -20.51584 -20.51204 -15.60330
 Alpha  occ. eigenvalues --  -15.57525 -15.57170 -15.55601 -11.37341 -11.33951
 Alpha  occ. eigenvalues --  -11.33677 -11.33292 -11.29348 -11.28155 -11.25098
 Alpha  occ. eigenvalues --  -11.24640 -11.24120 -11.23677 -11.22876 -11.22257
 Alpha  occ. eigenvalues --  -11.22039 -11.21799 -11.21764 -11.21718 -11.21444
 Alpha  occ. eigenvalues --  -11.21218 -11.21033 -11.19186  -1.43071  -1.39024
 Alpha  occ. eigenvalues --   -1.38863  -1.37740  -1.26110  -1.23189  -1.22238
 Alpha  occ. eigenvalues --   -1.21264  -1.10000  -1.08996  -1.06783  -1.03844
 Alpha  occ. eigenvalues --   -1.01302  -0.99512  -0.98480  -0.94879  -0.94741
 Alpha  occ. eigenvalues --   -0.94218  -0.91790  -0.87042  -0.85273  -0.82506
 Alpha  occ. eigenvalues --   -0.81269  -0.79158  -0.78771  -0.77616  -0.76508
 Alpha  occ. eigenvalues --   -0.71791  -0.71440  -0.70923  -0.69537  -0.67591
 Alpha  occ. eigenvalues --   -0.66319  -0.65982  -0.64257  -0.63929  -0.63416
 Alpha  occ. eigenvalues --   -0.62904  -0.62092  -0.61484  -0.61279  -0.61022
 Alpha  occ. eigenvalues --   -0.60628  -0.60020  -0.59122  -0.58763  -0.58447
 Alpha  occ. eigenvalues --   -0.58251  -0.57425  -0.56702  -0.56057  -0.55859
 Alpha  occ. eigenvalues --   -0.55178  -0.54652  -0.54449  -0.54337  -0.53916
 Alpha  occ. eigenvalues --   -0.53371  -0.52669  -0.51930  -0.51731  -0.51509
 Alpha  occ. eigenvalues --   -0.51071  -0.49974  -0.49435  -0.48423  -0.47897
 Alpha  occ. eigenvalues --   -0.47763  -0.45873  -0.45793  -0.43641  -0.43376
 Alpha  occ. eigenvalues --   -0.42562  -0.41130  -0.40748  -0.39934  -0.38475
 Alpha  occ. eigenvalues --   -0.37905  -0.36331  -0.33436
 Alpha virt. eigenvalues --    0.17052   0.18288   0.20010   0.20089   0.20619
 Alpha virt. eigenvalues --    0.21957   0.22373   0.23627   0.23820   0.25136
 Alpha virt. eigenvalues --    0.25360   0.26003   0.26773   0.27714   0.28010

 Mulliken atomic charges:
              1
     1  C   -0.274218
     2  N   -0.793668
     3  C    0.806229
     4  O   -0.643218
     5  C    0.117898
     6  C   -0.488622
     7  C   -0.339158
     8  C   -0.302206
     9  C   -0.374956
    10  C   -0.175648
    11  C   -0.182919
    12  C   -0.350408
    13  C   -0.310137
    14  C   -0.328592
    15  C    0.090787
    16  C   -0.509519
    17  N   -0.787682
    18  C    0.767400
    19  C   -0.595554
    20  O   -0.614481
    21  C    0.821039
    22  O   -0.639690
    23  N   -0.805448
    24  C   -0.275274
    25  N   -0.822118
    26  C    0.727864
    27  C   -0.585176
    28  O   -0.617407
    29  H    0.174900
    30  H    0.189989
    31  H    0.162707
    32  H    0.435455
    33  H    0.201061
    34  H    0.156643
    35  H    0.205595
    36  H    0.156303
    37  H    0.187732
    38  H    0.157282
    39  H    0.170285
    40  H    0.268323
    41  H    0.158851
    42  H    0.169600
    43  H    0.164817
    44  H    0.177464
    45  H    0.156179
    46  H    0.148242
    47  H    0.200369
    48  H    0.171997
    49  H    0.186083
    50  H    0.182899
    51  H    0.148677
    52  H    0.225489
    53  H    0.389982
    54  H    0.210297
    55  H    0.209280
    56  H    0.176066
    57  H    0.394936
    58  H    0.164371
    59  H    0.200475
    60  H    0.183681
    61  H    0.389222
    62  H    0.218220
    63  H    0.186649
    64  H    0.204756
 Sum of Mulliken atomic charges =   0.00000

 Dipole moment (field-independent basis, Debye):
    X=             -5.4793    Y=             -4.1594    Z=              4.8393  Tot=              8.4108
 Quadrupole moment (field-independent basis, Debye-Ang):
   XX=           -175.1006   YY=           -154.9438   ZZ=           -171.8772
   XY=              9.7614   XZ=            -10.1189   YZ=              7.1555

 Normal termination of Gaussian 09 at Thu Dec  5 16:31:13 2019.
