 Gaussian 09, Revision A.02,
 Gaussian 09:  EM64L-G09RevA.02 11-Jun-2009

 ---------------------------------
 #SP HF/6-31G* Geom=(ModRedundant)
 ---------------------------------

 ------------
 paramfit run
 ------------
 Symbolic Z-matrix:
 Charge =  0 Multiplicity = 1

                         Standard orientation:
 ---------------------------------------------------------------------
 Center     Atomic      Atomic             Coordinates (Angstroms)
 Number     Number       Type             X           Y           Z
 ---------------------------------------------------------------------
      1          6    20001001       -2.910191    2.764469   -0.896496
      2          7    20001014       -3.579531    1.502234   -1.133122
      3          6    20001002       -4.366349    0.964793   -0.171777
      4          8    20001024       -4.722930    1.584819    0.791635
      5          6    90000001       -4.902333   -0.452942   -0.440354
      6          6    90000002       -5.532143   -0.507513   -1.836134
      7          6    90000002       -3.759132   -1.493421   -0.291709
      8          6    90000002       -2.530521   -1.390030   -1.213371
      9          6    90000002       -1.418735   -0.399268   -0.814677
     10          6    20001004       -0.846182   -0.639423    0.562561
     11          6    20001004        0.266883   -1.284634    0.871670
     12          6    90000002        1.240573   -1.942096   -0.076710
     13          6    90000002        2.524275   -1.131144   -0.329756
     14          6    90000002        3.338807   -0.896946    0.949542
     15          6    90000002        4.740861   -0.248947    0.811744
     16          6    90000002        5.311397   -0.070042    2.228053
     17          7    20001014        5.596831   -1.151907    0.054438
     18          6    20001002        6.847727   -0.780587   -0.346108
     19          6    20001001        7.455591   -1.648052   -1.424446
     20          8    20001024        7.427345    0.161556    0.118166
     21          6    20001002        4.598182    1.066542    0.013085
     22          8    20001024        4.575709    1.046739   -1.188177
     23          7    20001014        4.399171    2.202601    0.715757
     24          6    20001001        4.308231    3.476646    0.032573
     25          7    20001014       -5.886134   -0.831850    0.584338
     26          6    20001002       -7.044431   -0.148643    0.810721
     27          6    20001001       -8.073510   -0.885689    1.642514
     28          8    20001024       -7.233613    0.958995    0.394204
     29          1    20001035       -2.163358    2.684591   -0.114953
     30          1    20001035       -3.633335    3.512027   -0.605046
     31          1    20001035       -2.431738    3.079573   -1.815269
     32          1    20001029       -3.144060    0.865282   -1.758377
     33          1    20001034       -4.825362   -0.210440   -2.595832
     34          1    20001034       -5.868765   -1.519382   -2.041184
     35          1    20001034       -6.377033    0.163093   -1.894215
     36          1    20001034       -4.218329   -2.461726   -0.478119
     37          1    20001034       -3.436382   -1.504455    0.744626
     38          1    20001034       -2.087197   -2.380973   -1.246785
     39          1    20001034       -2.845227   -1.166629   -2.227484
     40          1    20001034       -1.788437    0.616305   -0.872084
     41          1    20001034       -0.637969   -0.476167   -1.563228
     42          1    20001033       -1.420784   -0.227535    1.376376
     43          1    20001033        0.522590   -1.353548    1.917436
     44          1    20001034        0.765471   -2.131625   -1.031604
     45          1    20001034        1.510973   -2.917373    0.326171
     46          1    20001034        3.112671   -1.666190   -1.069951
     47          1    20001034        2.264961   -0.183764   -0.783693
     48          1    20001034        3.485066   -1.844823    1.463030
     49          1    20001034        2.761543   -0.268194    1.617216
     50          1    20001034        5.469314   -1.049315    2.664709
     51          1    20001034        4.615356    0.462512    2.867814
     52          1    20001034        6.257973    0.449126    2.214046
     53          1    20001029        5.122657   -1.759408   -0.573903
     54          1    20001034        8.528347   -1.529487   -1.410351
     55          1    20001034        7.081048   -1.315561   -2.387924
     56          1    20001034        7.199202   -2.694484   -1.299437
     57          1    20001029        4.660724    2.218187    1.673178
     58          1    20001035        4.029262    4.235302    0.751975
     59          1    20001035        3.551537    3.425031   -0.736438
     60          1    20001035        5.249762    3.753196   -0.430883
     61          1    20001029       -5.877870   -1.790399    0.853900
     62          1    20001034       -8.746136   -0.165183    2.084578
     63          1    20001034       -7.617798   -1.486407    2.421627
     64          1    20001034       -8.647122   -1.544027    0.998031
 ---------------------------------------------------------------------

 SCF Done:  E(RHF) =  -1295.58435394     A.U. after   14 cycles

 The electronic state is 1-A.
 Alpha  occ. eigenvalues --  -20.52375 -20.52029 -20.51109 -20.50758 -15.58295
 Alpha  occ. eigenvalues --  -15.57891 -15.57680 -15.57662 -11.34585 -11.34100
 Alpha  occ. eigenvalues --  -11.33497 -11.33294 -11.28970 -11.28959 -11.25386
 Alpha  occ. eigenvalues --  -11.25384 -11.24407 -11.24321 -11.23892 -11.23331
 Alpha  occ. eigenvalues --  -11.23224 -11.23137 -11.23034 -11.23026 -11.22825
 Alpha  occ. eigenvalues --  -11.22517 -11.22111 -11.22037  -1.39747  -1.38772
 Alpha  occ. eigenvalues --   -1.38475  -1.37017  -1.23924  -1.23538  -1.23011
 Alpha  occ. eigenvalues --   -1.22912  -1.11706  -1.09783  -1.07627  -1.04884
 Alpha  occ. eigenvalues --   -1.01422  -0.99191  -0.98726  -0.96117  -0.95177
 Alpha  occ. eigenvalues --   -0.94973  -0.93106  -0.88077  -0.86200  -0.83236
 Alpha  occ. eigenvalues --   -0.81856  -0.79871  -0.78621  -0.77541  -0.77260
 Alpha  occ. eigenvalues --   -0.72640  -0.71732  -0.70429  -0.68563  -0.67710
 Alpha  occ. eigenvalues --   -0.67459  -0.65288  -0.64930  -0.64230  -0.63247
 Alpha  occ. eigenvalues --   -0.62603  -0.62314  -0.62178  -0.61807  -0.61441
 Alpha  occ. eigenvalues --   -0.61077  -0.60189  -0.59510  -0.59044  -0.58563
 Alpha  occ. eigenvalues --   -0.57783  -0.57572  -0.56853  -0.56635  -0.56354
 Alpha  occ. eigenvalues --   -0.55646  -0.55258  -0.55129  -0.54800  -0.54730
 Alpha  occ. eigenvalues --   -0.53914  -0.53497  -0.52760  -0.52515  -0.52133
 Alpha  occ. eigenvalues --   -0.51011  -0.50229  -0.50058  -0.49549  -0.49134
 Alpha  occ. eigenvalues --   -0.48911  -0.47360  -0.46959  -0.45508  -0.41911
 Alpha  occ. eigenvalues --   -0.41401  -0.41334  -0.39688  -0.39224  -0.38691
 Alpha  occ. eigenvalues --   -0.38472  -0.37150  -0.35423
 Alpha virt. eigenvalues --    0.16341   0.19269   0.19657   0.20706   0.21201
 Alpha virt. eigenvalues --    0.21488   0.21733   0.22484   0.22766   0.23745
 Alpha virt. eigenvalues --    0.23907   0.25011   0.25685   0.26625   0.27125

 Mulliken atomic charges:
              1
     1  C   -0.289923
     2  N   -0.804289
     3  C    0.795920
     4  O   -0.582704
     5  C    0.092410
     6  C   -0.474844
     7  C   -0.337623
     8  C   -0.352175
     9  C   -0.380713
    10  C   -0.175458
    11  C   -0.174118
    12  C   -0.355982
    13  C   -0.310385
    14  C   -0.330100
    15  C    0.090825
    16  C   -0.510111
    17  N   -0.787293
    18  C    0.767257
    19  C   -0.595801
    20  O   -0.613100
    21  C    0.820150
    22  O   -0.640700
    23  N   -0.805885
    24  C   -0.275315
    25  N   -0.806158
    26  C    0.767865
    27  C   -0.587740
    28  O   -0.586626
    29  H    0.168045
    30  H    0.221474
    31  H    0.171261
    32  H    0.396207
    33  H    0.156548
    34  H    0.156531
    35  H    0.224572
    36  H    0.165587
    37  H    0.200579
    38  H    0.185222
    39  H    0.162744
    40  H    0.188183
    41  H    0.179412
    42  H    0.189924
    43  H    0.178459
    44  H    0.174074
    45  H    0.164794
    46  H    0.152762
    47  H    0.196261
    48  H    0.175097
    49  H    0.186155
    50  H    0.184572
    51  H    0.149741
    52  H    0.227519
    53  H    0.389221
    54  H    0.212192
    55  H    0.208793
    56  H    0.176626
    57  H    0.396654
    58  H    0.166809
    59  H    0.196272
    60  H    0.186016
    61  H    0.374323
    62  H    0.217058
    63  H    0.176200
    64  H    0.186729
 Sum of Mulliken atomic charges =   0.00000

 Dipole moment (field-independent basis, Debye):
    X=              0.7329    Y=             -5.9977    Z=             -0.3806  Tot=              6.0543
 Quadrupole moment (field-independent basis, Debye-Ang):
   XX=           -220.3588   YY=           -160.3075   ZZ=           -166.8483
   XY=             21.9507   XZ=             10.4278   YZ=              1.4065

 Normal termination of Gaussian 09 at Thu Dec  5 16:05:16 2019.
