 Gaussian 09, Revision A.02,
 Gaussian 09:  EM64L-G09RevA.02 11-Jun-2009

 ---------------------------------
 #SP HF/6-31G* Geom=(ModRedundant)
 ---------------------------------

 ------------
 paramfit run
 ------------
 Symbolic Z-matrix:
 Charge =  0 Multiplicity = 1

                         Standard orientation:
 ---------------------------------------------------------------------
 Center     Atomic      Atomic             Coordinates (Angstroms)
 Number     Number       Type             X           Y           Z
 ---------------------------------------------------------------------
      1          6    20001001       -2.627315    2.579490   -0.728206
      2          7    20001014       -3.289435    1.314294   -0.969290
      3          6    20001002       -4.378859    0.973201   -0.242021
      4          8    20001024       -4.967463    1.760165    0.446441
      5          6    90000001       -4.917475   -0.454295   -0.445818
      6          6    90000002       -5.544158   -0.572211   -1.839089
      7          6    90000002       -3.777019   -1.489255   -0.246266
      8          6    90000002       -2.546032   -1.431442   -1.168742
      9          6    90000002       -1.432901   -0.425679   -0.813753
     10          6    20001004       -0.864110   -0.602906    0.574536
     11          6    20001004        0.246744   -1.235510    0.915962
     12          6    90000002        1.221126   -1.938412    0.001487
     13          6    90000002        2.507275   -1.142891   -0.285797
     14          6    90000002        3.319363   -0.851352    0.983230
     15          6    90000002        4.723221   -0.213519    0.818920
     16          6    90000002        5.290867    0.029679    2.226785
     17          7    20001014        5.578872   -1.152526    0.106420
     18          6    20001002        6.831549   -0.802937   -0.307883
     19          6    20001001        7.439926   -1.720846   -1.343319
     20          8    20001024        7.412249    0.158469    0.113577
     21          6    20001002        4.585428    1.063794   -0.040272
     22          8    20001024        4.565706    0.988307   -1.239372
     23          7    20001014        4.387394    2.231674    0.608434
     24          6    20001001        4.300975    3.472835   -0.133359
     25          7    20001014       -5.904529   -0.783080    0.592958
     26          6    20001002       -7.061775   -0.087568    0.784573
     27          6    20001001       -8.094480   -0.782958    1.647169
     28          8    20001024       -7.247439    0.999957    0.316643
     29          1    20001035       -2.172016    2.615482    0.254829
     30          1    20001035       -3.341859    3.385853   -0.805203
     31          1    20001035       -1.861122    2.717555   -1.480694
     32          1    20001029       -2.733494    0.567003   -1.313920
     33          1    20001034       -4.834928   -0.312265   -2.610034
     34          1    20001034       -5.882628   -1.591766   -1.997778
     35          1    20001034       -6.387367    0.096826   -1.930284
     36          1    20001034       -4.238007   -2.464159   -0.388654
     37          1    20001034       -3.456710   -1.452883    0.790247
     38          1    20001034       -2.104911   -2.423835   -1.155052
     39          1    20001034       -2.857861   -1.254661   -2.192892
     40          1    20001034       -1.800132    0.586942   -0.919126
     41          1    20001034       -0.650573   -0.538947   -1.556025
     42          1    20001033       -1.439657   -0.152434    1.366959
     43          1    20001033        0.499857   -1.256373    1.964418
     44          1    20001034        0.747814   -2.171016   -0.944736
     45          1    20001034        1.488343   -2.894528    0.449851
     46          1    20001034        3.096161   -1.713002   -0.998932
     47          1    20001034        2.251199   -0.217036   -0.783842
     48          1    20001034        3.462245   -1.774693    1.540510
     49          1    20001034        2.741994   -0.191027    1.619600
     50          1    20001034        5.445515   -0.928615    2.708799
     51          1    20001034        4.594564    0.592875    2.839446
     52          1    20001034        6.238664    0.545564    2.191002
     53          1    20001029        5.104766   -1.787496   -0.494204
     54          1    20001034        8.512915   -1.604103   -1.332132
     55          1    20001034        7.068392   -1.432612   -2.322098
     56          1    20001034        7.180839   -2.759783   -1.170507
     57          1    20001029        4.646752    2.291108    1.564735
     58          1    20001035        4.022077    4.264671    0.549380
     59          1    20001035        3.545958    3.387240   -0.900984
     60          1    20001035        5.244217    3.725512   -0.606857
     61          1    20001029       -5.899097   -1.728101    0.906733
     62          1    20001034       -8.766475   -0.041240    2.053681
     63          1    20001034       -7.641967   -1.347864    2.454426
     64          1    20001034       -8.668103   -1.469242    1.032538
 ---------------------------------------------------------------------

 SCF Done:  E(RHF) =  -1295.50397751     A.U. after   14 cycles

 The electronic state is 1-A.
 Alpha  occ. eigenvalues --  -20.52480 -20.52159 -20.50244 -20.50058 -15.58422
 Alpha  occ. eigenvalues --  -15.58015 -15.57472 -15.56147 -11.34690 -11.34231
 Alpha  occ. eigenvalues --  -11.33003 -11.32696 -11.29119 -11.28793 -11.25491
 Alpha  occ. eigenvalues --  -11.25358 -11.24720 -11.24528 -11.24088 -11.23734
 Alpha  occ. eigenvalues --  -11.23611 -11.23546 -11.23257 -11.23187 -11.22911
 Alpha  occ. eigenvalues --  -11.22284 -11.22245 -11.21807  -1.39865  -1.38592
 Alpha  occ. eigenvalues --   -1.38403  -1.36306  -1.24452  -1.24051  -1.23137
 Alpha  occ. eigenvalues --   -1.22868  -1.12165  -1.10018  -1.07816  -1.05381
 Alpha  occ. eigenvalues --   -1.01709  -0.99292  -0.98560  -0.96675  -0.95362
 Alpha  occ. eigenvalues --   -0.95137  -0.93629  -0.88228  -0.86495  -0.84338
 Alpha  occ. eigenvalues --   -0.83179  -0.80057  -0.79525  -0.77861  -0.77386
 Alpha  occ. eigenvalues --   -0.72570  -0.71801  -0.70478  -0.68641  -0.67564
 Alpha  occ. eigenvalues --   -0.67117  -0.65104  -0.64887  -0.64371  -0.63223
 Alpha  occ. eigenvalues --   -0.62856  -0.62685  -0.61920  -0.61717  -0.61549
 Alpha  occ. eigenvalues --   -0.60700  -0.60385  -0.59661  -0.59167  -0.58858
 Alpha  occ. eigenvalues --   -0.57753  -0.57458  -0.57016  -0.56665  -0.56273
 Alpha  occ. eigenvalues --   -0.55666  -0.55370  -0.55271  -0.55034  -0.54150
 Alpha  occ. eigenvalues --   -0.53865  -0.53605  -0.52897  -0.52409  -0.51525
 Alpha  occ. eigenvalues --   -0.51001  -0.50334  -0.50114  -0.49369  -0.49284
 Alpha  occ. eigenvalues --   -0.48509  -0.47429  -0.47141  -0.45864  -0.42043
 Alpha  occ. eigenvalues --   -0.41963  -0.41508  -0.39348  -0.38824  -0.38420
 Alpha  occ. eigenvalues --   -0.37777  -0.35954  -0.35595
 Alpha virt. eigenvalues --    0.16025   0.19146   0.19809   0.20912   0.21093
 Alpha virt. eigenvalues --    0.21344   0.22080   0.22478   0.23152   0.23590
 Alpha virt. eigenvalues --    0.24655   0.25099   0.25476   0.26562   0.26962

 Mulliken atomic charges:
              1
     1  C   -0.295186
     2  N   -0.845787
     3  C    0.778576
     4  O   -0.568028
     5  C    0.103587
     6  C   -0.482189
     7  C   -0.347762
     8  C   -0.380280
     9  C   -0.434383
    10  C   -0.158969
    11  C   -0.173338
    12  C   -0.356927
    13  C   -0.310795
    14  C   -0.330282
    15  C    0.090982
    16  C   -0.510097
    17  N   -0.787298
    18  C    0.767221
    19  C   -0.595860
    20  O   -0.612869
    21  C    0.819953
    22  O   -0.640356
    23  N   -0.806153
    24  C   -0.275490
    25  N   -0.813101
    26  C    0.755338
    27  C   -0.586307
    28  O   -0.564913
    29  H    0.173202
    30  H    0.225677
    31  H    0.169459
    32  H    0.435663
    33  H    0.168160
    34  H    0.155585
    35  H    0.226110
    36  H    0.168292
    37  H    0.196625
    38  H    0.197779
    39  H    0.184516
    40  H    0.209330
    41  H    0.187619
    42  H    0.186781
    43  H    0.180180
    44  H    0.175313
    45  H    0.165907
    46  H    0.154067
    47  H    0.196432
    48  H    0.175445
    49  H    0.185395
    50  H    0.184741
    51  H    0.149478
    52  H    0.227993
    53  H    0.389169
    54  H    0.212504
    55  H    0.208990
    56  H    0.176665
    57  H    0.396700
    58  H    0.166913
    59  H    0.196258
    60  H    0.186539
    61  H    0.372956
    62  H    0.216242
    63  H    0.172255
    64  H    0.185773
 Sum of Mulliken atomic charges =   0.00000

 Dipole moment (field-independent basis, Debye):
    X=              1.5420    Y=             -6.4025    Z=              0.6897  Tot=              6.6216
 Quadrupole moment (field-independent basis, Debye-Ang):
   XX=           -225.7116   YY=           -161.3678   ZZ=           -167.2844
   XY=             24.7187   XZ=              6.7888   YZ=              2.8938

 Normal termination of Gaussian 09 at Thu Dec  5 17:02:28 2019.
