 Gaussian 09, Revision A.02,
 Gaussian 09:  EM64L-G09RevA.02 11-Jun-2009

 ---------------------------------
 #SP HF/6-31G* Geom=(ModRedundant)
 ---------------------------------

 ------------
 paramfit run
 ------------
 Symbolic Z-matrix:
 Charge =  0 Multiplicity = 1

                         Standard orientation:
 ---------------------------------------------------------------------
 Center     Atomic      Atomic             Coordinates (Angstroms)
 Number     Number       Type             X           Y           Z
 ---------------------------------------------------------------------
      1          6    20001001       -4.841217    3.196457   -0.283043
      2          7    20001014       -5.230132    1.801735   -0.255797
      3          6    20001002       -4.284915    0.835806   -0.330984
      4          8    20001024       -3.115071    1.065698   -0.195482
      5          6    90000001       -4.794465   -0.610564   -0.464251
      6          6    90000002       -5.415736   -0.810015   -1.850643
      7          6    90000002       -3.633976   -1.611256   -0.212296
      8          6    90000002       -2.402452   -1.574597   -1.135140
      9          6    90000002       -1.310392   -0.530328   -0.829292
     10          6    20001004       -0.741093   -0.627005    0.566713
     11          6    20001004        0.381460   -1.219473    0.940358
     12          6    90000002        1.371616   -1.947190    0.062989
     13          6    90000002        2.642211   -1.141257   -0.262013
     14          6    90000002        3.445640   -0.770877    0.991875
     15          6    90000002        4.836813   -0.113941    0.797654
     16          6    90000002        5.396524    0.210152    2.192337
     17          7    20001014        5.712556   -1.069787    0.133604
     18          6    20001002        6.958864   -0.716121   -0.296158
     19          6    20001001        7.587640   -1.671883   -1.284068
     20          8    20001024        7.519348    0.276469    0.077693
     21          6    20001002        4.675327    1.116145   -0.124048
     22          8    20001024        4.659639    0.980873   -1.317943
     23          7    20001014        4.452629    2.310564    0.465653
     24          6    20001001        4.342983    3.511406   -0.336944
     25          7    20001014       -5.776934   -0.907141    0.588474
     26          6    20001002       -6.948248   -0.226339    0.744036
     27          6    20001001       -7.968662   -0.898653    1.638951
     28          8    20001024       -7.154625    0.832685    0.222484
     29          1    20001035       -4.412041    3.476842   -1.238104
     30          1    20001035       -4.111594    3.387061    0.490289
     31          1    20001035       -5.717800    3.803478   -0.094681
     32          1    20001029       -6.129274    1.572011   -0.609430
     33          1    20001034       -4.710223   -0.574465   -2.632757
     34          1    20001034       -5.733427   -1.842775   -1.958891
     35          1    20001034       -6.271952   -0.163381   -1.975878
     36          1    20001034       -4.075088   -2.601078   -0.306617
     37          1    20001034       -3.316637   -1.517080    0.821487
     38          1    20001034       -1.941617   -2.556038   -1.071707
     39          1    20001034       -2.715598   -1.455142   -2.167150
     40          1    20001034       -1.697565    0.468245   -0.985219
     41          1    20001034       -0.524399   -0.664567   -1.564158
     42          1    20001033       -1.327194   -0.149409    1.335156
     43          1    20001033        0.632734   -1.183206    1.988836
     44          1    20001034        0.905037   -2.235907   -0.871042
     45          1    20001034        1.656944   -2.874328    0.558567
     46          1    20001034        3.243871   -1.734119   -0.945308
     47          1    20001034        2.368730   -0.246579   -0.805695
     48          1    20001034        3.605775   -1.662376    1.594468
     49          1    20001034        2.853853   -0.091508    1.594034
     50          1    20001034        5.569277   -0.719749    2.721506
     51          1    20001034        4.687818    0.788969    2.775508
     52          1    20001034        6.333895    0.742539    2.132034
     53          1    20001029        5.252499   -1.743161   -0.435278
     54          1    20001034        8.658056   -1.533223   -1.277502
     55          1    20001034        7.212478   -1.440081   -2.276362
     56          1    20001034        7.349005   -2.705956   -1.060173
     57          1    20001029        4.708736    2.422565    1.418110
     58          1    20001035        4.046881    4.330388    0.305329
     59          1    20001035        3.591443    3.372697   -1.100209
     60          1    20001035        5.281981    3.759154   -0.821358
     61          1    20001029       -5.753276   -1.835130    0.948786
     62          1    20001034       -8.656199   -0.151312    2.007390
     63          1    20001034       -7.506648   -1.413616    2.473760
     64          1    20001034       -8.527162   -1.625960    1.058516
 ---------------------------------------------------------------------

 SCF Done:  E(RHF) =  -1295.55914303     A.U. after   14 cycles

 The electronic state is 1-A.
 Alpha  occ. eigenvalues --  -20.54253 -20.51577 -20.51456 -20.51007 -15.60219
 Alpha  occ. eigenvalues --  -15.57334 -15.56969 -15.54307 -11.37123 -11.33785
 Alpha  occ. eigenvalues --  -11.33456 -11.33091 -11.29358 -11.27910 -11.24795
 Alpha  occ. eigenvalues --  -11.24497 -11.23709 -11.23107 -11.22950 -11.22540
 Alpha  occ. eigenvalues --  -11.22125 -11.21497 -11.21341 -11.21239 -11.21221
 Alpha  occ. eigenvalues --  -11.20370 -11.20131 -11.18358  -1.42715  -1.38966
 Alpha  occ. eigenvalues --   -1.38843  -1.37557  -1.25732  -1.22982  -1.22050
 Alpha  occ. eigenvalues --   -1.21180  -1.09565  -1.08745  -1.06389  -1.03522
 Alpha  occ. eigenvalues --   -1.01032  -0.99493  -0.98318  -0.94605  -0.94283
 Alpha  occ. eigenvalues --   -0.94062  -0.91535  -0.86802  -0.85016  -0.83502
 Alpha  occ. eigenvalues --   -0.81154  -0.78949  -0.78226  -0.77789  -0.76313
 Alpha  occ. eigenvalues --   -0.72096  -0.71069  -0.70483  -0.68781  -0.67371
 Alpha  occ. eigenvalues --   -0.66226  -0.65457  -0.64322  -0.64233  -0.63355
 Alpha  occ. eigenvalues --   -0.62588  -0.61859  -0.61161  -0.60989  -0.60675
 Alpha  occ. eigenvalues --   -0.60248  -0.59616  -0.59032  -0.58562  -0.58060
 Alpha  occ. eigenvalues --   -0.57892  -0.57187  -0.56653  -0.55889  -0.55605
 Alpha  occ. eigenvalues --   -0.55113  -0.54659  -0.54270  -0.54113  -0.53888
 Alpha  occ. eigenvalues --   -0.53226  -0.52598  -0.52116  -0.51996  -0.51435
 Alpha  occ. eigenvalues --   -0.50533  -0.49298  -0.49069  -0.47962  -0.47381
 Alpha  occ. eigenvalues --   -0.47282  -0.45447  -0.45106  -0.43143  -0.42909
 Alpha  occ. eigenvalues --   -0.41767  -0.40928  -0.40575  -0.38649  -0.38281
 Alpha  occ. eigenvalues --   -0.37709  -0.36020  -0.32688
 Alpha virt. eigenvalues --    0.17873   0.18784   0.19810   0.20207   0.20605
 Alpha virt. eigenvalues --    0.22155   0.22606   0.23880   0.24463   0.25567
 Alpha virt. eigenvalues --    0.25802   0.26311   0.27050   0.27645   0.28035

 Mulliken atomic charges:
              1
     1  C   -0.275733
     2  N   -0.778054
     3  C    0.803884
     4  O   -0.640992
     5  C    0.075667
     6  C   -0.487563
     7  C   -0.318067
     8  C   -0.315201
     9  C   -0.349106
    10  C   -0.166934
    11  C   -0.187301
    12  C   -0.347649
    13  C   -0.309045
    14  C   -0.328366
    15  C    0.090469
    16  C   -0.509576
    17  N   -0.787644
    18  C    0.767448
    19  C   -0.595444
    20  O   -0.614894
    21  C    0.821371
    22  O   -0.640504
    23  N   -0.804939
    24  C   -0.274757
    25  N   -0.811392
    26  C    0.787619
    27  C   -0.588391
    28  O   -0.642196
    29  H    0.158688
    30  H    0.189617
    31  H    0.168563
    32  H    0.456599
    33  H    0.186287
    34  H    0.167303
    35  H    0.187790
    36  H    0.147377
    37  H    0.192495
    38  H    0.160458
    39  H    0.155027
    40  H    0.254703
    41  H    0.146148
    42  H    0.182940
    43  H    0.161834
    44  H    0.175510
    45  H    0.153314
    46  H    0.145742
    47  H    0.199288
    48  H    0.171496
    49  H    0.187447
    50  H    0.182685
    51  H    0.149198
    52  H    0.224634
    53  H    0.390085
    54  H    0.209779
    55  H    0.208835
    56  H    0.176044
    57  H    0.394994
    58  H    0.164366
    59  H    0.199720
    60  H    0.182876
    61  H    0.388499
    62  H    0.219518
    63  H    0.187638
    64  H    0.199790
 Sum of Mulliken atomic charges =   0.00000

 Dipole moment (field-independent basis, Debye):
    X=             -6.4872    Y=             -4.1534    Z=              1.9555  Tot=              7.9473
 Quadrupole moment (field-independent basis, Debye-Ang):
   XX=           -170.6510   YY=           -156.1475   ZZ=           -167.3612
   XY=              7.8382   XZ=              2.5293   YZ=              3.4667

 Normal termination of Gaussian 09 at Thu Dec  5 16:05:02 2019.
