 Gaussian 09, Revision A.02,
 Gaussian 09:  EM64L-G09RevA.02 11-Jun-2009

 ---------------------------------
 #SP HF/6-31G* Geom=(ModRedundant)
 ---------------------------------

 ------------
 paramfit run
 ------------
 Symbolic Z-matrix:
 Charge =  0 Multiplicity = 1

                         Standard orientation:
 ---------------------------------------------------------------------
 Center     Atomic      Atomic             Coordinates (Angstroms)
 Number     Number       Type             X           Y           Z
 ---------------------------------------------------------------------
      1          6    20001001       -2.468594    2.451612   -0.447328
      2          7    20001014       -3.102948    1.172786   -0.691144
      3          6    20001002       -4.386360    0.972450   -0.310582
      4          8    20001024       -5.108783    1.871103    0.021494
      5          6    90000001       -4.926340   -0.461781   -0.454763
      6          6    90000002       -5.550846   -0.637799   -1.842873
      7          6    90000002       -3.787453   -1.488657   -0.209680
      8          6    90000002       -2.554866   -1.471281   -1.131667
      9          6    90000002       -1.441126   -0.452658   -0.817615
     10          6    20001004       -0.874856   -0.571664    0.577897
     11          6    20001004        0.234673   -1.190512    0.947665
     12          6    90000002        1.209734   -1.932543    0.065395
     13          6    90000002        2.497307   -1.151324   -0.253065
     14          6    90000002        3.307632   -0.807300    1.003889
     15          6    90000002        4.712521   -0.178560    0.815160
     16          6    90000002        5.278115    0.123311    2.212454
     17          7    20001014        5.568235   -1.147813    0.144465
     18          6    20001002        6.822014   -0.817460   -0.282104
     19          6    20001001        7.431016   -1.779009   -1.276762
     20          8    20001024        7.403160    0.160255    0.099323
     21          6    20001002        4.577681    1.061436   -0.097503
     22          8    20001024        4.559862    0.935338   -1.292372
     23          7    20001014        4.379962    2.255922    0.500904
     24          6    20001001        4.296258    3.464703   -0.292848
     25          7    20001014       -5.915510   -0.745243    0.595295
     26          6    20001002       -7.072242   -0.040953    0.755351
     27          6    20001001       -8.107210   -0.698090    1.644809
     28          8    20001024       -7.255831    1.026021    0.241541
     29          1    20001035       -2.345706    2.645338    0.612068
     30          1    20001035       -3.067203    3.243148   -0.873778
     31          1    20001035       -1.496604    2.451852   -0.924390
     32          1    20001029       -2.517396    0.371129   -0.718722
     33          1    20001034       -4.840026   -0.411480   -2.622904
     34          1    20001034       -5.890267   -1.662773   -1.958892
     35          1    20001034       -6.393102    0.027729   -1.963717
     36          1    20001034       -4.249366   -2.468192   -0.311511
     37          1    20001034       -3.468823   -1.408851    0.824915
     38          1    20001034       -2.114952   -2.462702   -1.075276
     39          1    20001034       -2.864780   -1.337612   -2.162908
     40          1    20001034       -1.806973    0.555014   -0.966336
     41          1    20001034       -0.657703   -0.598086   -1.553095
     42          1    20001033       -1.451182   -0.087444    1.349579
     43          1    20001033        0.486017   -1.167309    1.996497
     44          1    20001034        0.737718   -2.204416   -0.870956
     45          1    20001034        1.475065   -2.869146    0.554240
     46          1    20001034        3.086697   -1.751739   -0.940448
     47          1    20001034        2.243164   -0.247069   -0.790247
     48          1    20001034        3.448485   -1.706412    1.599953
     49          1    20001034        2.729994   -0.120012    1.610782
     50          1    20001034        5.430818   -0.813919    2.734817
     51          1    20001034        4.581468    0.712689    2.799562
     52          1    20001034        6.226587    0.636158    2.156512
     53          1    20001029        5.094371   -1.807078   -0.429585
     54          1    20001034        8.504125   -1.663102   -1.268685
     55          1    20001034        7.061455   -1.532002   -2.267488
     56          1    20001034        7.170404   -2.809420   -1.060621
     57          1    20001029        4.637802    2.355445    1.454280
     58          1    20001035        4.017170    4.285012    0.355322
     59          1    20001035        3.542417    3.347575   -1.057459
     60          1    20001035        5.240587    3.696077   -0.774992
     61          1    20001029       -5.911727   -1.676157    0.948753
     62          1    20001034       -8.778993    0.060906    2.018447
     63          1    20001034       -7.656714   -1.228865    2.476001
     64          1    20001034       -8.680629   -1.409104    1.058763
 ---------------------------------------------------------------------

 SCF Done:  E(RHF) =  -1295.39386427     A.U. after   15 cycles

 The electronic state is 1-A.
 Alpha  occ. eigenvalues --  -20.52567 -20.52262 -20.49682 -20.49318 -15.58521
 Alpha  occ. eigenvalues --  -15.58121 -15.57434 -15.53770 -11.34777 -11.34337
 Alpha  occ. eigenvalues --  -11.32778 -11.31921 -11.29247 -11.28561 -11.25566
 Alpha  occ. eigenvalues --  -11.25065 -11.24935 -11.24522 -11.24265 -11.24213
 Alpha  occ. eigenvalues --  -11.24034 -11.23868 -11.23471 -11.23120 -11.22980
 Alpha  occ. eigenvalues --  -11.22360 -11.22191 -11.21549  -1.39961  -1.38686
 Alpha  occ. eigenvalues --   -1.38032  -1.35896  -1.26704  -1.24159  -1.23235
 Alpha  occ. eigenvalues --   -1.22854  -1.12691  -1.10270  -1.08013  -1.06107
 Alpha  occ. eigenvalues --   -1.02004  -0.99398  -0.98897  -0.97494  -0.95481
 Alpha  occ. eigenvalues --   -0.95114  -0.94082  -0.89189  -0.87136  -0.85357
 Alpha  occ. eigenvalues --   -0.83333  -0.80156  -0.79561  -0.77850  -0.77487
 Alpha  occ. eigenvalues --   -0.72893  -0.71953  -0.70396  -0.68691  -0.67503
 Alpha  occ. eigenvalues --   -0.66908  -0.65169  -0.64674  -0.64366  -0.63272
 Alpha  occ. eigenvalues --   -0.62971  -0.62440  -0.62014  -0.61878  -0.61571
 Alpha  occ. eigenvalues --   -0.60848  -0.59958  -0.59508  -0.59322  -0.59107
 Alpha  occ. eigenvalues --   -0.57746  -0.57183  -0.57034  -0.56724  -0.56279
 Alpha  occ. eigenvalues --   -0.55677  -0.55438  -0.55401  -0.55197  -0.54241
 Alpha  occ. eigenvalues --   -0.53799  -0.53447  -0.52980  -0.52449  -0.51425
 Alpha  occ. eigenvalues --   -0.50414  -0.50210  -0.50180  -0.49583  -0.48797
 Alpha  occ. eigenvalues --   -0.47917  -0.47360  -0.46220  -0.45308  -0.42152
 Alpha  occ. eigenvalues --   -0.41857  -0.41597  -0.39448  -0.38922  -0.38035
 Alpha  occ. eigenvalues --   -0.37301  -0.36429  -0.34559
 Alpha virt. eigenvalues --    0.15578   0.19044   0.20460   0.20652   0.20994
 Alpha virt. eigenvalues --    0.21206   0.21913   0.22544   0.23182   0.23501
 Alpha virt. eigenvalues --    0.24786   0.25203   0.25560   0.26717   0.26872

 Mulliken atomic charges:
              1
     1  C   -0.293579
     2  N   -0.948536
     3  C    0.786217
     4  O   -0.562520
     5  C    0.122109
     6  C   -0.485145
     7  C   -0.380733
     8  C   -0.362170
     9  C   -0.480995
    10  C   -0.170212
    11  C   -0.168081
    12  C   -0.358695
    13  C   -0.311286
    14  C   -0.330513
    15  C    0.091170
    16  C   -0.510086
    17  N   -0.787311
    18  C    0.767197
    19  C   -0.595918
    20  O   -0.612648
    21  C    0.819732
    22  O   -0.639940
    23  N   -0.806400
    24  C   -0.275752
    25  N   -0.818664
    26  C    0.742144
    27  C   -0.586062
    28  O   -0.547771
    29  H    0.172825
    30  H    0.216270
    31  H    0.170274
    32  H    0.499974
    33  H    0.168237
    34  H    0.153706
    35  H    0.229825
    36  H    0.171591
    37  H    0.195431
    38  H    0.198551
    39  H    0.194487
    40  H    0.253108
    41  H    0.208412
    42  H    0.192185
    43  H    0.181979
    44  H    0.176932
    45  H    0.167159
    46  H    0.155491
    47  H    0.196784
    48  H    0.175757
    49  H    0.184680
    50  H    0.184859
    51  H    0.149261
    52  H    0.228442
    53  H    0.389105
    54  H    0.212773
    55  H    0.209212
    56  H    0.176683
    57  H    0.396710
    58  H    0.167020
    59  H    0.196529
    60  H    0.186960
    61  H    0.372260
    62  H    0.215541
    63  H    0.169550
    64  H    0.185883
 Sum of Mulliken atomic charges =   0.00000

 Dipole moment (field-independent basis, Debye):
    X=              2.1018    Y=             -6.6988    Z=              1.8073  Tot=              7.2497
 Quadrupole moment (field-independent basis, Debye-Ang):
   XX=           -228.7071   YY=           -162.1335   ZZ=           -167.3002
   XY=             26.6151   XZ=              2.5710   YZ=              4.6813

 Normal termination of Gaussian 09 at Thu Dec  5 16:51:03 2019.
