 Gaussian 09, Revision A.02,
 Gaussian 09:  EM64L-G09RevA.02 11-Jun-2009

 ---------------------------------
 #SP HF/6-31G* Geom=(ModRedundant)
 ---------------------------------

 ------------
 paramfit run
 ------------
 Symbolic Z-matrix:
 Charge =  0 Multiplicity = 1

                         Standard orientation:
 ---------------------------------------------------------------------
 Center     Atomic      Atomic             Coordinates (Angstroms)
 Number     Number       Type             X           Y           Z
 ---------------------------------------------------------------------
      1          6    20001001       -3.183568    2.670149    0.601647
      2          7    20001014       -3.597729    1.286324    0.497991
      3          6    20001002       -4.353443    0.884641   -0.550654
      4          8    20001024       -4.518542    1.564865   -1.525222
      5          6    90000001       -4.887514   -0.557974   -0.495723
      6          6    90000002       -5.500873   -0.929943   -1.849707
      7          6    90000002       -3.747094   -1.535253   -0.100794
      8          6    90000002       -2.507608   -1.642152   -1.007370
      9          6    90000002       -1.399697   -0.584652   -0.831692
     10          6    20001004       -0.843642   -0.503994    0.570655
     11          6    20001004        0.265111   -1.059911    1.031502
     12          6    90000002        1.249317   -1.914230    0.269117
     13          6    90000002        2.536652   -1.179857   -0.146852
     14          6    90000002        3.336257   -0.659156    1.054986
     15          6    90000002        4.740428   -0.057013    0.789706
     16          6    90000002        5.294387    0.440593    2.134686
     17          7    20001014        5.604444   -1.107105    0.267871
     18          6    20001002        6.860314   -0.834456   -0.192031
     19          6    20001001        7.480061   -1.923504   -1.037428
     20          8    20001024        7.435276    0.189672    0.052348
     21          6    20001002        4.608375    1.041902   -0.289031
     22          8    20001024        4.600049    0.749153   -1.454431
     23          7    20001014        4.402127    2.307719    0.134230
     24          6    20001001        4.320409    3.392654   -0.822032
     25          7    20001014       -5.883675   -0.695467    0.576746
     26          6    20001002       -7.043937    0.019252    0.628120
     27          6    20001001       -8.083423   -0.510966    1.593757
     28          8    20001024       -7.227186    1.002670   -0.031766
     29          1    20001035       -4.026905    3.332813    0.758517
     30          1    20001035       -2.676750    2.968270   -0.304433
     31          1    20001035       -2.497308    2.764157    1.433851
     32          1    20001029       -3.706167    0.778115    1.344307
     33          1    20001034       -4.784913   -0.812317   -2.648767
     34          1    20001034       -5.835975   -1.962527   -1.822972
     35          1    20001034       -6.344408   -0.291678   -2.068778
     36          1    20001034       -4.204943   -2.521393   -0.067261
     37          1    20001034       -3.436596   -1.309531    0.914549
     38          1    20001034       -2.064823   -2.613891   -0.809164
     39          1    20001034       -2.810131   -1.656007   -2.049322
     40          1    20001034       -1.767771    0.390531   -1.123072
     41          1    20001034       -0.610230   -0.828510   -1.533909
     42          1    20001033       -1.427425    0.081285    1.262580
     43          1    20001033        0.508407   -0.888526    2.068418
     44          1    20001034        0.785335   -2.316985   -0.623057
     45          1    20001034        1.514059   -2.771718    0.886547
     46          1    20001034        3.133247   -1.868279   -0.738901
     47          1    20001034        2.283572   -0.361135   -0.807516
     48          1    20001034        3.475586   -1.465011    1.772426
     49          1    20001034        2.751733    0.104026    1.555223
     50          1    20001034        5.446252   -0.413301    2.784597
     51          1    20001034        4.591335    1.103535    2.628252
     52          1    20001034        6.241535    0.944645    2.013939
     53          1    20001029        5.137158   -1.842532   -0.211195
     54          1    20001034        8.552683   -1.802916   -1.038153
     55          1    20001034        7.117207   -1.819715   -2.055607
     56          1    20001034        7.221260   -2.914473   -0.680518
     57          1    20001029        4.652387    2.541288    1.065963
     58          1    20001035        4.033670    4.294640   -0.297512
     59          1    20001035        3.572791    3.165997   -1.567900
     60          1    20001035        5.267593    3.558145   -1.325232
     61          1    20001029       -5.879463   -1.567483    1.057494
     62          1    20001034       -8.760558    0.290038    1.852322
     63          1    20001034       -7.637478   -0.917758    2.494426
     64          1    20001034       -8.649996   -1.299747    1.109383
 ---------------------------------------------------------------------

 SCF Done:  E(RHF) =  -1295.61178824     A.U. after   14 cycles

 The electronic state is 1-A.
 Alpha  occ. eigenvalues --  -20.52793 -20.52204 -20.51787 -20.51759 -15.59209
 Alpha  occ. eigenvalues --  -15.58090 -15.57878 -15.57701 -11.35279 -11.34412
 Alpha  occ. eigenvalues --  -11.33873 -11.33703 -11.28915 -11.28772 -11.25289
 Alpha  occ. eigenvalues --  -11.25157 -11.24194 -11.23840 -11.23652 -11.23109
 Alpha  occ. eigenvalues --  -11.22894 -11.22697 -11.22652 -11.22645 -11.22491
 Alpha  occ. eigenvalues --  -11.22216 -11.21991 -11.20645  -1.39827  -1.39542
 Alpha  occ. eigenvalues --   -1.38442  -1.38267  -1.24923  -1.23731  -1.22802
 Alpha  occ. eigenvalues --   -1.22572  -1.11108  -1.09438  -1.07371  -1.04363
 Alpha  occ. eigenvalues --   -1.01232  -0.99232  -0.98826  -0.95814  -0.95325
 Alpha  occ. eigenvalues --   -0.94763  -0.92417  -0.87334  -0.85933  -0.83235
 Alpha  occ. eigenvalues --   -0.81463  -0.79669  -0.78718  -0.77361  -0.77060
 Alpha  occ. eigenvalues --   -0.72196  -0.71446  -0.70942  -0.68607  -0.68186
 Alpha  occ. eigenvalues --   -0.67124  -0.65745  -0.64718  -0.64049  -0.63898
 Alpha  occ. eigenvalues --   -0.62579  -0.62423  -0.61848  -0.61577  -0.61314
 Alpha  occ. eigenvalues --   -0.60796  -0.59893  -0.59411  -0.58868  -0.58369
 Alpha  occ. eigenvalues --   -0.58203  -0.57864  -0.56631  -0.56541  -0.56381
 Alpha  occ. eigenvalues --   -0.55729  -0.55091  -0.54950  -0.54845  -0.54175
 Alpha  occ. eigenvalues --   -0.53295  -0.52870  -0.52400  -0.51894  -0.51776
 Alpha  occ. eigenvalues --   -0.50641  -0.50329  -0.49943  -0.49614  -0.48819
 Alpha  occ. eigenvalues --   -0.48612  -0.47261  -0.46670  -0.44979  -0.42536
 Alpha  occ. eigenvalues --   -0.41693  -0.41231  -0.41224  -0.39021  -0.38923
 Alpha  occ. eigenvalues --   -0.38497  -0.38443  -0.34975
 Alpha virt. eigenvalues --    0.16776   0.19118   0.19475   0.20004   0.20307
 Alpha virt. eigenvalues --    0.21409   0.21735   0.21875   0.22967   0.23569
 Alpha virt. eigenvalues --    0.25291   0.25418   0.26106   0.26899   0.27399

 Mulliken atomic charges:
              1
     1  C   -0.278165
     2  N   -0.791354
     3  C    0.824729
     4  O   -0.607668
     5  C    0.080309
     6  C   -0.464031
     7  C   -0.331897
     8  C   -0.316674
     9  C   -0.358115
    10  C   -0.168889
    11  C   -0.175064
    12  C   -0.354031
    13  C   -0.310726
    14  C   -0.329184
    15  C    0.091150
    16  C   -0.509601
    17  N   -0.787572
    18  C    0.767247
    19  C   -0.595756
    20  O   -0.613576
    21  C    0.820430
    22  O   -0.639228
    23  N   -0.806275
    24  C   -0.275685
    25  N   -0.827195
    26  C    0.748511
    27  C   -0.588953
    28  O   -0.584453
    29  H    0.185452
    30  H    0.202453
    31  H    0.162442
    32  H    0.382310
    33  H    0.182829
    34  H    0.141244
    35  H    0.224964
    36  H    0.163411
    37  H    0.164721
    38  H    0.167505
    39  H    0.178992
    40  H    0.200666
    41  H    0.175928
    42  H    0.167580
    43  H    0.170409
    44  H    0.177157
    45  H    0.161521
    46  H    0.152224
    47  H    0.199066
    48  H    0.173637
    49  H    0.184189
    50  H    0.183817
    51  H    0.148083
    52  H    0.227202
    53  H    0.389694
    54  H    0.211619
    55  H    0.209541
    56  H    0.176378
    57  H    0.395486
    58  H    0.165130
    59  H    0.199187
    60  H    0.185682
    61  H    0.379503
    62  H    0.218433
    63  H    0.175233
    64  H    0.198028
 Sum of Mulliken atomic charges =   0.00000

 Dipole moment (field-independent basis, Debye):
    X=             -1.0276    Y=             -5.1480    Z=              6.2201  Tot=              8.1392
 Quadrupole moment (field-independent basis, Debye-Ang):
   XX=           -208.1258   YY=           -158.6873   ZZ=           -171.9712
   XY=             19.5697   XZ=            -17.3685   YZ=             10.4012

 Normal termination of Gaussian 09 at Thu Dec  5 16:05:02 2019.
