 Gaussian 09, Revision A.02,
 Gaussian 09:  EM64L-G09RevA.02 11-Jun-2009

 ---------------------------------
 #SP HF/6-31G* Geom=(ModRedundant)
 ---------------------------------

 ------------
 paramfit run
 ------------
 Symbolic Z-matrix:
 Charge =  0 Multiplicity = 1

                         Standard orientation:
 ---------------------------------------------------------------------
 Center     Atomic      Atomic             Coordinates (Angstroms)
 Number     Number       Type             X           Y           Z
 ---------------------------------------------------------------------
      1          6    20001001       -4.009029    2.955285    0.513246
      2          7    20001014       -4.338421    1.545449    0.546513
      3          6    20001002       -4.315601    0.819787   -0.595855
      4          8    20001024       -3.819927    1.227577   -1.609640
      5          6    90000001       -4.839333   -0.624416   -0.499059
      6          6    90000002       -5.444657   -1.041880   -1.843362
      7          6    90000002       -3.693360   -1.580761   -0.070396
      8          6    90000002       -2.449589   -1.705949   -0.968725
      9          6    90000002       -1.350126   -0.635410   -0.821193
     10          6    20001004       -0.800167   -0.508071    0.580095
     11          6    20001004        0.310805   -1.041492    1.061716
     12          6    90000002        1.304199   -1.911250    0.329293
     13          6    90000002        2.587754   -1.180320   -0.104058
     14          6    90000002        3.378827   -0.617436    1.084335
     15          6    90000002        4.779590   -0.013228    0.806053
     16          6    90000002        5.324633    0.529098    2.137316
     17          7    20001014        5.653288   -1.072249    0.319575
     18          6    20001002        6.908924   -0.804386   -0.143767
     19          6    20001001        7.539909   -1.913981   -0.953372
     20          8    20001024        7.475430    0.230930    0.071481
     21          6    20001002        4.643736    1.051402   -0.306075
     22          8    20001024        4.642109    0.723336   -1.462060
     23          7    20001014        4.426596    2.327927    0.077741
     24          6    20001001        4.340700    3.382679   -0.911360
     25          7    20001014       -5.838652   -0.736656    0.573412
     26          6    20001002       -7.004295   -0.029334    0.598752
     27          6    20001001       -8.043651   -0.537672    1.576223
     28          8    20001024       -7.192137    0.932201   -0.091399
     29          1    20001035       -4.740766    3.527289   -0.045611
     30          1    20001035       -3.041496    3.093267    0.053283
     31          1    20001035       -3.969237    3.325044    1.530128
     32          1    20001029       -4.964203    1.239900    1.254554
     33          1    20001034       -4.726453   -0.943272   -2.642983
     34          1    20001034       -5.772311   -2.075633   -1.786483
     35          1    20001034       -6.291967   -0.416840   -2.084847
     36          1    20001034       -4.144123   -2.568797   -0.008586
     37          1    20001034       -3.388494   -1.322005    0.938753
     38          1    20001034       -2.000498   -2.667907   -0.739435
     39          1    20001034       -2.747923   -1.753691   -2.010882
     40          1    20001034       -1.724170    0.327715   -1.143443
     41          1    20001034       -0.556158   -0.894623   -1.512755
     42          1    20001033       -1.390911    0.093608    1.251748
     43          1    20001033        0.548784   -0.836889    2.093834
     44          1    20001034        0.846665   -2.344350   -0.551928
     45          1    20001034        1.572779   -2.747600    0.973481
     46          1    20001034        3.191673   -1.881964   -0.672699
     47          1    20001034        2.331289   -0.383944   -0.790237
     48          1    20001034        3.521230   -1.400071    1.826453
     49          1    20001034        2.786793    0.156230    1.558979
     50          1    20001034        5.480187   -0.303511    2.813443
     51          1    20001034        4.614833    1.201493    2.607902
     52          1    20001034        6.268541    1.036261    2.004794
     53          1    20001029        5.193263   -1.825333   -0.138631
     54          1    20001034        8.611617   -1.785517   -0.953805
     55          1    20001034        7.180294   -1.843863   -1.975568
     56          1    20001034        7.286959   -2.895545   -0.567456
     57          1    20001029        4.671496    2.591540    1.002859
     58          1    20001035        4.045329    4.298030   -0.415565
     59          1    20001035        3.597679    3.127931   -1.652744
     60          1    20001035        5.288611    3.539832   -1.415861
     61          1    20001029       -5.829952   -1.593612    1.080462
     62          1    20001034       -8.727625    0.265770    1.807815
     63          1    20001034       -7.598275   -0.913600    2.490481
     64          1    20001034       -8.602549   -1.344984    1.113966
 ---------------------------------------------------------------------

 SCF Done:  E(RHF) =  -1295.62015721     A.U. after   14 cycles

 The electronic state is 1-A.
 Alpha  occ. eigenvalues --  -20.53911 -20.51968 -20.51867 -20.51484 -15.59726
 Alpha  occ. eigenvalues --  -15.57794 -15.57432 -15.57301 -11.36195 -11.34176
 Alpha  occ. eigenvalues --  -11.33906 -11.33572 -11.29113 -11.28462 -11.24876
 Alpha  occ. eigenvalues --  -11.24746 -11.24533 -11.23937 -11.23272 -11.22467
 Alpha  occ. eigenvalues --  -11.22448 -11.22391 -11.22207 -11.22027 -11.21833
 Alpha  occ. eigenvalues --  -11.21713 -11.21101 -11.21099  -1.40925  -1.39274
 Alpha  occ. eigenvalues --   -1.38800  -1.37995  -1.25611  -1.23456  -1.22506
 Alpha  occ. eigenvalues --   -1.21901  -1.10587  -1.09182  -1.07109  -1.04140
 Alpha  occ. eigenvalues --   -1.01224  -0.99367  -0.98678  -0.95403  -0.95042
 Alpha  occ. eigenvalues --   -0.94487  -0.92099  -0.87225  -0.85603  -0.82704
 Alpha  occ. eigenvalues --   -0.81274  -0.79401  -0.78740  -0.77219  -0.76775
 Alpha  occ. eigenvalues --   -0.71767  -0.71330  -0.71035  -0.69118  -0.67891
 Alpha  occ. eigenvalues --   -0.66552  -0.65881  -0.64455  -0.63926  -0.63623
 Alpha  occ. eigenvalues --   -0.62570  -0.62319  -0.61691  -0.61335  -0.61114
 Alpha  occ. eigenvalues --   -0.60903  -0.59898  -0.59271  -0.58676  -0.58465
 Alpha  occ. eigenvalues --   -0.58249  -0.57744  -0.56606  -0.56295  -0.56136
 Alpha  occ. eigenvalues --   -0.55386  -0.54756  -0.54648  -0.54476  -0.53806
 Alpha  occ. eigenvalues --   -0.53203  -0.52973  -0.52404  -0.52101  -0.51464
 Alpha  occ. eigenvalues --   -0.51248  -0.50227  -0.49686  -0.49078  -0.48411
 Alpha  occ. eigenvalues --   -0.48213  -0.46606  -0.46267  -0.44343  -0.43142
 Alpha  occ. eigenvalues --   -0.42041  -0.41404  -0.40981  -0.39496  -0.38739
 Alpha  occ. eigenvalues --   -0.38178  -0.37996  -0.34297
 Alpha virt. eigenvalues --    0.17538   0.18462   0.19749   0.20065   0.20163
 Alpha virt. eigenvalues --    0.21690   0.22068   0.23286   0.23577   0.24219
 Alpha virt. eigenvalues --    0.25196   0.25734   0.26597   0.27284   0.27750

 Mulliken atomic charges:
              1
     1  C   -0.279072
     2  N   -0.780284
     3  C    0.815679
     4  O   -0.633017
     5  C    0.116345
     6  C   -0.479515
     7  C   -0.336588
     8  C   -0.308887
     9  C   -0.377111
    10  C   -0.178769
    11  C   -0.178110
    12  C   -0.353027
    13  C   -0.310548
    14  C   -0.329003
    15  C    0.090996
    16  C   -0.509581
    17  N   -0.787637
    18  C    0.767332
    19  C   -0.595664
    20  O   -0.613997
    21  C    0.820693
    22  O   -0.639372
    23  N   -0.805833
    24  C   -0.275559
    25  N   -0.845096
    26  C    0.733570
    27  C   -0.588069
    28  O   -0.592859
    29  H    0.186030
    30  H    0.196097
    31  H    0.162378
    32  H    0.397825
    33  H    0.202469
    34  H    0.147294
    35  H    0.209747
    36  H    0.160756
    37  H    0.185610
    38  H    0.162441
    39  H    0.179048
    40  H    0.226103
    41  H    0.172428
    42  H    0.177798
    43  H    0.168971
    44  H    0.177087
    45  H    0.159426
    46  H    0.150513
    47  H    0.199905
    48  H    0.172837
    49  H    0.185337
    50  H    0.183322
    51  H    0.148458
    52  H    0.226379
    53  H    0.389809
    54  H    0.210964
    55  H    0.209480
    56  H    0.176193
    57  H    0.395181
    58  H    0.164749
    59  H    0.200119
    60  H    0.184646
    61  H    0.384108
    62  H    0.218312
    63  H    0.178703
    64  H    0.202461
 Sum of Mulliken atomic charges =   0.00000

 Dipole moment (field-independent basis, Debye):
    X=             -3.4904    Y=             -4.3039    Z=              6.1531  Tot=              8.2805
 Quadrupole moment (field-independent basis, Debye-Ang):
   XX=           -189.1316   YY=           -155.1399   ZZ=           -173.4523
   XY=             12.3275   XZ=            -16.4420   YZ=              9.2715

 Normal termination of Gaussian 09 at Thu Dec  5 16:46:44 2019.
