 Gaussian 09, Revision A.02,
 Gaussian 09:  EM64L-G09RevA.02 11-Jun-2009

 ---------------------------------
 #SP HF/6-31G* Geom=(ModRedundant)
 ---------------------------------

 ------------
 paramfit run
 ------------
 Symbolic Z-matrix:
 Charge =  0 Multiplicity = 1

                         Standard orientation:
 ---------------------------------------------------------------------
 Center     Atomic      Atomic             Coordinates (Angstroms)
 Number     Number       Type             X           Y           Z
 ---------------------------------------------------------------------
      1          6    20001001       -4.301297    3.232732   -0.740059
      2          7    20001014       -4.839603    1.893562   -0.858786
      3          6    20001002       -4.309060    0.885521   -0.127699
      4          8    20001024       -3.556224    1.078263    0.786541
      5          6    90000001       -4.827211   -0.530325   -0.437997
      6          6    90000002       -5.463343   -0.549883   -1.831838
      7          6    90000002       -3.669318   -1.559227   -0.327334
      8          6    90000002       -2.446936   -1.410335   -1.251047
      9          6    90000002       -1.346611   -0.417413   -0.826753
     10          6    20001004       -0.763846   -0.692612    0.539603
     11          6    20001004        0.359394   -1.331896    0.823159
     12          6    90000002        1.337023   -1.946064   -0.149875
     13          6    90000002        2.608346   -1.110148   -0.383424
     14          6    90000002        3.426160   -0.904906    0.898750
     15          6    90000002        4.818613   -0.233830    0.774737
     16          6    90000002        5.393901   -0.091463    2.193267
     17          7    20001014        5.682824   -1.100927   -0.014448
     18          6    20001002        6.926531   -0.700231   -0.409028
     19          6    20001001        7.540544   -1.525218   -1.516814
     20          8    20001024        7.495733    0.234785    0.081783
     21          6    20001002        4.654106    1.103884    0.018310
     22          8    20001024        4.625771    1.121295   -1.182865
     23          7    20001014        4.443357    2.214623    0.757110
     24          6    20001001        4.331733    3.508019    0.114562
     25          7    20001014       -5.800563   -0.954446    0.578929
     26          6    20001002       -6.966811   -0.294527    0.831997
     27          6    20001001       -7.981583   -1.071172    1.645126
     28          8    20001024       -7.173059    0.822891    0.451234
     29          1    20001035       -3.284841    3.293183   -1.111692
     30          1    20001035       -4.306555    3.537649    0.296146
     31          1    20001035       -4.928533    3.908941   -1.307218
     32          1    20001029       -5.252731    1.643377   -1.726552
     33          1    20001034       -4.764525   -0.219606   -2.585167
     34          1    20001034       -5.787310   -1.559359   -2.066874
     35          1    20001034       -6.317498    0.110607   -1.864953
     36          1    20001034       -4.116341   -2.527420   -0.541802
     37          1    20001034       -3.341163   -1.598205    0.706628
     38          1    20001034       -1.990445   -2.393603   -1.317526
     39          1    20001034       -2.769802   -1.159696   -2.256190
     40          1    20001034       -1.730284    0.594314   -0.850621
     41          1    20001034       -0.568710   -0.460229   -1.580987
     42          1    20001033       -1.339798   -0.314223    1.368588
     43          1    20001033        0.621342   -1.429932    1.865048
     44          1    20001034        0.859655   -2.112156   -1.107999
     45          1    20001034        1.622622   -2.929661    0.221020
     46          1    20001034        3.200129   -1.613733   -1.142745
     47          1    20001034        2.333948   -0.152687   -0.806276
     48          1    20001034        3.587826   -1.866269    1.381637
     49          1    20001034        2.843872   -0.305253    1.588465
     50          1    20001034        5.567256   -1.081644    2.598322
     51          1    20001034        4.694005    0.411299    2.852628
     52          1    20001034        6.333295    0.440771    2.191083
     53          1    20001029        5.213697   -1.694932   -0.659266
     54          1    20001034        8.611658   -1.392509   -1.504036
     55          1    20001034        7.156631   -1.167951   -2.467654
     56          1    20001034        7.298951   -2.578447   -1.423414
     57          1    20001029        4.709560    2.203876    1.713317
     58          1    20001035        4.046218    4.239960    0.858647
     59          1    20001035        3.571891    3.470111   -0.652139
     60          1    20001035        5.267067    3.811739   -0.344415
     61          1    20001029       -5.777978   -1.920743    0.818322
     62          1    20001034       -8.661614   -0.374077    2.112661
     63          1    20001034       -7.513829   -1.689645    2.402918
     64          1    20001034       -8.549533   -1.716839    0.983047
 ---------------------------------------------------------------------

 SCF Done:  E(RHF) =  -1295.60664839     A.U. after   14 cycles

 The electronic state is 1-A.
 Alpha  occ. eigenvalues --  -20.52429 -20.51882 -20.51825 -20.51402 -15.58831
 Alpha  occ. eigenvalues --  -15.57695 -15.57320 -15.57220 -11.35005 -11.34092
 Alpha  occ. eigenvalues --  -11.33791 -11.33478 -11.29226 -11.28307 -11.24838
 Alpha  occ. eigenvalues --  -11.24775 -11.23495 -11.23356 -11.23048 -11.22789
 Alpha  occ. eigenvalues --  -11.22756 -11.22400 -11.22088 -11.22000 -11.21536
 Alpha  occ. eigenvalues --  -11.21527 -11.21390 -11.21100  -1.39666  -1.39189
 Alpha  occ. eigenvalues --   -1.38561  -1.37913  -1.24317  -1.23340  -1.22412
 Alpha  occ. eigenvalues --   -1.22386  -1.10348  -1.09060  -1.06930  -1.04121
 Alpha  occ. eigenvalues --   -1.00664  -0.99556  -0.98661  -0.95441  -0.94579
 Alpha  occ. eigenvalues --   -0.94268  -0.92155  -0.87619  -0.85561  -0.82746
 Alpha  occ. eigenvalues --   -0.80951  -0.79282  -0.78184  -0.76794  -0.76671
 Alpha  occ. eigenvalues --   -0.71527  -0.71223  -0.70757  -0.68520  -0.67708
 Alpha  occ. eigenvalues --   -0.66259  -0.65274  -0.64435  -0.64074  -0.63413
 Alpha  occ. eigenvalues --   -0.62578  -0.61915  -0.61624  -0.61273  -0.60939
 Alpha  occ. eigenvalues --   -0.60368  -0.59953  -0.59077  -0.58496  -0.58058
 Alpha  occ. eigenvalues --   -0.57566  -0.57211  -0.56836  -0.56239  -0.56026
 Alpha  occ. eigenvalues --   -0.55392  -0.55119  -0.54679  -0.54502  -0.54155
 Alpha  occ. eigenvalues --   -0.53613  -0.52864  -0.52315  -0.51800  -0.51472
 Alpha  occ. eigenvalues --   -0.51278  -0.50113  -0.49598  -0.48751  -0.48215
 Alpha  occ. eigenvalues --   -0.47964  -0.46703  -0.46039  -0.43961  -0.42433
 Alpha  occ. eigenvalues --   -0.41478  -0.41306  -0.40892  -0.38672  -0.38640
 Alpha  occ. eigenvalues --   -0.38083  -0.37515  -0.33796
 Alpha virt. eigenvalues --    0.17638   0.19137   0.19854   0.19964   0.20939
 Alpha virt. eigenvalues --    0.21794   0.22279   0.23428   0.23633   0.24527
 Alpha virt. eigenvalues --    0.25390   0.25529   0.26449   0.27237   0.27403

 Mulliken atomic charges:
              1
     1  C   -0.280549
     2  N   -0.759099
     3  C    0.809016
     4  O   -0.629686
     5  C    0.127895
     6  C   -0.539500
     7  C   -0.333970
     8  C   -0.324060
     9  C   -0.354438
    10  C   -0.181155
    11  C   -0.181379
    12  C   -0.351729
    13  C   -0.309054
    14  C   -0.329304
    15  C    0.090459
    16  C   -0.509952
    17  N   -0.787438
    18  C    0.767401
    19  C   -0.595576
    20  O   -0.614152
    21  C    0.820893
    22  O   -0.641102
    23  N   -0.805011
    24  C   -0.274819
    25  N   -0.803147
    26  C    0.753088
    27  C   -0.590363
    28  O   -0.596415
    29  H    0.163727
    30  H    0.208726
    31  H    0.170712
    32  H    0.391964
    33  H    0.169967
    34  H    0.173936
    35  H    0.211070
    36  H    0.152051
    37  H    0.211311
    38  H    0.169566
    39  H    0.158885
    40  H    0.189176
    41  H    0.167388
    42  H    0.214832
    43  H    0.170945
    44  H    0.172082
    45  H    0.158773
    46  H    0.148219
    47  H    0.196987
    48  H    0.173158
    49  H    0.188160
    50  H    0.183517
    51  H    0.150042
    52  H    0.225647
    53  H    0.389627
    54  H    0.210733
    55  H    0.208576
    56  H    0.176301
    57  H    0.395908
    58  H    0.165724
    59  H    0.197794
    60  H    0.183896
    61  H    0.381440
    62  H    0.217722
    63  H    0.182776
    64  H    0.191809
 Sum of Mulliken atomic charges =   0.00000

 Dipole moment (field-independent basis, Debye):
    X=             -3.5975    Y=             -4.4715    Z=             -0.8987  Tot=              5.8090
 Quadrupole moment (field-independent basis, Debye-Ang):
   XX=           -191.4982   YY=           -155.7597   ZZ=           -165.1743
   XY=              9.8737   XZ=             13.2394   YZ=              0.5640

 Normal termination of Gaussian 09 at Thu Dec  5 16:41:52 2019.
