 Gaussian 09, Revision A.02,
 Gaussian 09:  EM64L-G09RevA.02 11-Jun-2009

 ---------------------------------
 #SP HF/6-31G* Geom=(ModRedundant)
 ---------------------------------

 ------------
 paramfit run
 ------------
 Symbolic Z-matrix:
 Charge =  0 Multiplicity = 1

                         Standard orientation:
 ---------------------------------------------------------------------
 Center     Atomic      Atomic             Coordinates (Angstroms)
 Number     Number       Type             X           Y           Z
 ---------------------------------------------------------------------
      1          6    20001001       -4.607838    3.238302   -0.583237
      2          7    20001014       -5.083725    1.871669   -0.638821
      3          6    20001002       -4.296179    0.864099   -0.195330
      4          8    20001024       -3.304303    1.057222    0.451686
      5          6    90000001       -4.809460   -0.565463   -0.444890
      6          6    90000002       -5.441453   -0.647779   -1.838321
      7          6    90000002       -3.649023   -1.585159   -0.286114
      8          6    90000002       -2.424365   -1.473210   -1.212026
      9          6    90000002       -1.328066   -0.459482   -0.828460
     10          6    20001004       -0.748534   -0.672999    0.550246
     11          6    20001004        0.375655   -1.295996    0.864621
     12          6    90000002        1.357840   -1.949244   -0.077895
     13          6    90000002        2.627499   -1.120624   -0.344199
     14          6    90000002        3.440981   -0.857153    0.930062
     15          6    90000002        4.831909   -0.188073    0.780735
     16          6    90000002        5.402643    0.017836    2.193290
     17          7    20001014        5.700846   -1.086304    0.032630
     18          6    20001002        6.944576   -0.699605   -0.375604
     19          6    20001001        7.564132   -1.570422   -1.444544
     20          8    20001024        7.509723    0.257628    0.075458
     21          6    20001002        4.665875    1.114817   -0.033903
     22          8    20001024        4.641007    1.079631   -1.234767
     23          7    20001014        4.449862    2.256164    0.655043
     24          6    20001001        4.336501    3.519909   -0.043740
     25          7    20001014       -5.784593   -0.947577    0.586873
     26          6    20001002       -6.953417   -0.280637    0.807584
     27          6    20001001       -7.968388   -1.023964    1.651041
     28          8    20001024       -7.161673    0.818464    0.377764
     29          1    20001035       -3.765814    3.399397   -1.246558
     30          1    20001035       -4.301438    3.477357    0.424580
     31          1    20001035       -5.417408    3.898113   -0.868891
     32          1    20001029       -5.736072    1.644578   -1.352374
     33          1    20001034       -4.741361   -0.348703   -2.603407
     34          1    20001034       -5.761907   -1.667505   -2.029910
     35          1    20001034       -6.297352    0.008135   -1.902667
     36          1    20001034       -4.092708   -2.563101   -0.459305
     37          1    20001034       -3.323787   -1.577952    0.749478
     38          1    20001034       -1.964933   -2.457106   -1.234181
     39          1    20001034       -2.744988   -1.267684   -2.228064
     40          1    20001034       -1.714495    0.549109   -0.897606
     41          1    20001034       -0.547845   -0.532949   -1.577921
     42          1    20001033       -1.327964   -0.260425    1.360281
     43          1    20001033        0.634827   -1.347637    1.910529
     44          1    20001034        0.883744   -2.158446   -1.029175
     45          1    20001034        1.645102   -2.914852    0.336442
     46          1    20001034        3.222907   -1.655183   -1.079120
     47          1    20001034        2.351663   -0.183363   -0.809268
     48          1    20001034        3.603921   -1.796015    1.454963
     49          1    20001034        2.855003   -0.229632    1.591272
     50          1    20001034        5.577581   -0.953185    2.641725
     51          1    20001034        4.699418    0.546887    2.828081
     52          1    20001034        6.340548    0.552207    2.170473
     53          1    20001029        5.235270   -1.709291   -0.586917
     54          1    20001034        8.634829   -1.434153   -1.434580
     55          1    20001034        7.182006   -1.256175   -2.411163
     56          1    20001034        7.325213   -2.619263   -1.305869
     57          1    20001029        4.713294    2.287995    1.611548
     58          1    20001035        4.046766    4.282834    0.666838
     59          1    20001035        3.579015    3.446309   -0.810176
     60          1    20001035        5.272321    3.806011   -0.512932
     61          1    20001029       -5.760006   -1.902417    0.868340
     62          1    20001034       -8.651730   -0.309090    2.085750
     63          1    20001034       -7.501126   -1.607357    2.436451
     64          1    20001034       -8.532592   -1.699605    1.016232
 ---------------------------------------------------------------------

 SCF Done:  E(RHF) =  -1295.59769958     A.U. after   14 cycles

 The electronic state is 1-A.
 Alpha  occ. eigenvalues --  -20.52593 -20.51985 -20.51736 -20.51216 -15.59147
 Alpha  occ. eigenvalues --  -15.57524 -15.57150 -15.56686 -11.35360 -11.33944
 Alpha  occ. eigenvalues --  -11.33771 -11.33295 -11.29260 -11.28113 -11.24683
 Alpha  occ. eigenvalues --  -11.24582 -11.23756 -11.23112 -11.22964 -11.22795
 Alpha  occ. eigenvalues --  -11.22270 -11.22221 -11.21703 -11.21644 -11.21379
 Alpha  occ. eigenvalues --  -11.20824 -11.20531 -11.20387  -1.40093  -1.39024
 Alpha  occ. eigenvalues --   -1.38864  -1.37745  -1.24625  -1.23167  -1.22241
 Alpha  occ. eigenvalues --   -1.22060  -1.09906  -1.08846  -1.06658  -1.03812
 Alpha  occ. eigenvalues --   -1.00508  -0.99557  -0.98499  -0.95079  -0.94474
 Alpha  occ. eigenvalues --   -0.94236  -0.91846  -0.87235  -0.85303  -0.82611
 Alpha  occ. eigenvalues --   -0.80829  -0.79114  -0.78089  -0.76549  -0.76500
 Alpha  occ. eigenvalues --   -0.71359  -0.71218  -0.70423  -0.68706  -0.67533
 Alpha  occ. eigenvalues --   -0.66029  -0.65294  -0.64580  -0.63920  -0.63337
 Alpha  occ. eigenvalues --   -0.62720  -0.61804  -0.61360  -0.61093  -0.60781
 Alpha  occ. eigenvalues --   -0.60000  -0.59863  -0.58929  -0.58351  -0.58067
 Alpha  occ. eigenvalues --   -0.57453  -0.57185  -0.57091  -0.56082  -0.55823
 Alpha  occ. eigenvalues --   -0.55125  -0.54832  -0.54488  -0.54333  -0.54294
 Alpha  occ. eigenvalues --   -0.53194  -0.52672  -0.52049  -0.51933  -0.51568
 Alpha  occ. eigenvalues --   -0.50926  -0.49655  -0.49416  -0.48354  -0.47840
 Alpha  occ. eigenvalues --   -0.47617  -0.46197  -0.45744  -0.43486  -0.42978
 Alpha  occ. eigenvalues --   -0.42129  -0.41126  -0.40740  -0.38620  -0.38469
 Alpha  occ. eigenvalues --   -0.37906  -0.36489  -0.33237
 Alpha virt. eigenvalues --    0.18281   0.19068   0.19489   0.20022   0.20983
 Alpha virt. eigenvalues --    0.21968   0.22449   0.23660   0.24065   0.24860
 Alpha virt. eigenvalues --    0.25583   0.25976   0.26684   0.27415   0.27472

 Mulliken atomic charges:
              1
     1  C   -0.278485
     2  N   -0.733698
     3  C    0.792817
     4  O   -0.628640
     5  C    0.109533
     6  C   -0.510803
     7  C   -0.321362
     8  C   -0.324749
     9  C   -0.346410
    10  C   -0.175145
    11  C   -0.184524
    12  C   -0.349898
    13  C   -0.308806
    14  C   -0.328864
    15  C    0.090413
    16  C   -0.509804
    17  N   -0.787515
    18  C    0.767425
    19  C   -0.595508
    20  O   -0.614522
    21  C    0.821138
    22  O   -0.640959
    23  N   -0.804916
    24  C   -0.274718
    25  N   -0.807539
    26  C    0.751533
    27  C   -0.590280
    28  O   -0.596955
    29  H    0.161621
    30  H    0.202460
    31  H    0.172667
    32  H    0.394672
    33  H    0.177955
    34  H    0.171899
    35  H    0.188162
    36  H    0.148670
    37  H    0.204968
    38  H    0.166416
    39  H    0.156498
    40  H    0.205340
    41  H    0.159493
    42  H    0.207457
    43  H    0.166803
    44  H    0.172666
    45  H    0.156285
    46  H    0.146858
    47  H    0.197592
    48  H    0.172432
    49  H    0.188101
    50  H    0.183159
    51  H    0.149744
    52  H    0.225112
    53  H    0.389838
    54  H    0.210273
    55  H    0.208629
    56  H    0.176202
    57  H    0.395528
    58  H    0.165112
    59  H    0.198507
    60  H    0.183381
    61  H    0.383572
    62  H    0.217333
    63  H    0.182717
    64  H    0.193120
 Sum of Mulliken atomic charges =   0.00000

 Dipole moment (field-independent basis, Debye):
    X=             -4.8658    Y=             -4.1281    Z=              0.0317  Tot=              6.3811
 Quadrupole moment (field-independent basis, Debye-Ang):
   XX=           -183.3082   YY=           -155.4181   ZZ=           -165.6502
   XY=              7.3863   XZ=             10.2768   YZ=              1.5658

 Normal termination of Gaussian 09 at Thu Dec  5 16:52:03 2019.
