 Gaussian 09, Revision A.02,
 Gaussian 09:  EM64L-G09RevA.02 11-Jun-2009

 ---------------------------------
 #SP HF/6-31G* Geom=(ModRedundant)
 ---------------------------------

 ------------
 paramfit run
 ------------
 Symbolic Z-matrix:
 Charge =  0 Multiplicity = 1

                         Standard orientation:
 ---------------------------------------------------------------------
 Center     Atomic      Atomic             Coordinates (Angstroms)
 Number     Number       Type             X           Y           Z
 ---------------------------------------------------------------------
      1          6    20001001       -4.467295    3.240673   -0.666487
      2          7    20001014       -4.974583    1.887052   -0.753735
      3          6    20001002       -4.302172    0.874499   -0.158161
      4          8    20001024       -3.419556    1.063020    0.632532
      5          6    90000001       -4.817716   -0.548083   -0.440757
      6          6    90000002       -5.452174   -0.596451   -1.834660
      7          6    90000002       -3.658326   -1.572714   -0.308274
      8          6    90000002       -2.435095   -1.440306   -1.233372
      9          6    90000002       -1.336843   -0.437354   -0.827701
     10          6    20001004       -0.755252   -0.684320    0.544537
     11          6    20001004        0.368664   -1.316019    0.842070
     12          6    90000002        1.348407   -1.947894   -0.117403
     13          6    90000002        2.618681   -1.114760   -0.366118
     14          6    90000002        3.434659   -0.882681    0.912644
     15          6    90000002        4.826193   -0.211976    0.776869
     16          6    90000002        5.399585   -0.040428    2.192936
     17          7    20001014        5.692704   -1.093246    0.006121
     18          6    20001002        6.936238   -0.698499   -0.394946
     19          6    20001001        7.552860   -1.544422   -1.485357
     20          8    20001024        7.503382    0.247029    0.077775
     21          6    20001002        4.660459    1.110124   -0.006270
     22          8    20001024        4.633511    1.103537   -1.207585
     23          7    20001014        4.447083    2.235034    0.709993
     24          6    20001001        4.334168    3.515180    0.041654
     25          7    20001014       -5.791591   -0.953408    0.583308
     26          6    20001002       -6.959179   -0.290447    0.821830
     27          6    20001001       -7.973677   -1.052355    1.649121
     28          8    20001024       -7.166748    0.818824    0.418626
     29          1    20001035       -3.525682    3.353065   -1.191541
     30          1    20001035       -4.316762    3.507961    0.369187
     31          1    20001035       -5.198330    3.912306   -1.098749
     32          1    20001029       -5.512770    1.652455   -1.554738
     33          1    20001034       -4.752994   -0.280138   -2.593624
     34          1    20001034       -5.774266   -1.610931   -2.049890
     35          1    20001034       -6.307335    0.061876   -1.881916
     36          1    20001034       -4.103563   -2.545707   -0.503906
     37          1    20001034       -3.331327   -1.590542    0.726634
     38          1    20001034       -1.976970   -2.423969   -1.279709
     39          1    20001034       -2.757174   -1.210276   -2.243682
     40          1    20001034       -1.722089    0.573077   -0.872179
     41          1    20001034       -0.557988   -0.493951   -1.580040
     42          1    20001033       -1.332777   -0.290403    1.365151
     43          1    20001033        0.629540   -1.392840    1.886007
     44          1    20001034        0.872433   -2.133823   -1.072570
     45          1    20001034        1.635128   -2.923440    0.273360
     46          1    20001034        3.212154   -1.632433   -1.114568
     47          1    20001034        2.343265   -0.166362   -0.808292
     48          1    20001034        3.597279   -1.833964    1.414790
     49          1    20001034        2.850611   -0.270332    1.589597
     50          1    20001034        5.574030   -1.022057    2.617853
     51          1    20001034        4.698118    0.474254    2.841339
     52          1    20001034        6.338137    0.493164    2.181216
     53          1    20001029        5.225277   -1.700742   -0.627261
     54          1    20001034        8.623748   -1.409766   -1.474000
     55          1    20001034        7.169502   -1.206802   -2.443571
     56          1    20001034        7.312826   -2.595967   -1.371249
     57          1    20001029        4.712177    2.243782    1.666528
     58          1    20001035        4.046619    4.261352    0.770670
     59          1    20001035        3.575291    3.460772   -0.725009
     60          1    20001035        5.269559    3.811191   -0.422215
     61          1    20001029       -5.767758   -1.914701    0.841947
     62          1    20001034       -8.655360   -0.347168    2.101884
     63          1    20001034       -7.505837   -1.654843    2.419631
     64          1    20001034       -8.539824   -1.712005    0.999400
 ---------------------------------------------------------------------

 SCF Done:  E(RHF) =  -1295.60301915     A.U. after   14 cycles

 The electronic state is 1-A.
 Alpha  occ. eigenvalues --  -20.52489 -20.51942 -20.51805 -20.51305 -15.58979
 Alpha  occ. eigenvalues --  -15.57605 -15.57230 -15.56967 -11.35156 -11.34014
 Alpha  occ. eigenvalues --  -11.33799 -11.33381 -11.29246 -11.28204 -11.24756
 Alpha  occ. eigenvalues --  -11.24688 -11.23614 -11.23214 -11.22914 -11.22894
 Alpha  occ. eigenvalues --  -11.22488 -11.22332 -11.21880 -11.21818 -11.21453
 Alpha  occ. eigenvalues --  -11.21086 -11.20987 -11.20781  -1.39841  -1.39102
 Alpha  occ. eigenvalues --   -1.38722  -1.37825  -1.24462  -1.23249  -1.22322
 Alpha  occ. eigenvalues --   -1.22228  -1.10114  -1.08945  -1.06790  -1.03964
 Alpha  occ. eigenvalues --   -1.00560  -0.99569  -0.98577  -0.95262  -0.94510
 Alpha  occ. eigenvalues --   -0.94257  -0.91994  -0.87432  -0.85429  -0.82662
 Alpha  occ. eigenvalues --   -0.80870  -0.79193  -0.78133  -0.76666  -0.76581
 Alpha  occ. eigenvalues --   -0.71408  -0.71235  -0.70573  -0.68597  -0.67613
 Alpha  occ. eigenvalues --   -0.66119  -0.65272  -0.64538  -0.63975  -0.63326
 Alpha  occ. eigenvalues --   -0.62700  -0.61855  -0.61484  -0.61180  -0.60852
 Alpha  occ. eigenvalues --   -0.60143  -0.59922  -0.59005  -0.58414  -0.58044
 Alpha  occ. eigenvalues --   -0.57474  -0.57183  -0.57031  -0.56163  -0.55920
 Alpha  occ. eigenvalues --   -0.55271  -0.54939  -0.54573  -0.54397  -0.54249
 Alpha  occ. eigenvalues --   -0.53394  -0.52762  -0.52155  -0.51811  -0.51569
 Alpha  occ. eigenvalues --   -0.51118  -0.49889  -0.49506  -0.48542  -0.48022
 Alpha  occ. eigenvalues --   -0.47779  -0.46462  -0.45883  -0.43697  -0.42775
 Alpha  occ. eigenvalues --   -0.41790  -0.41211  -0.40812  -0.38631  -0.38550
 Alpha  occ. eigenvalues --   -0.37990  -0.37027  -0.33501
 Alpha virt. eigenvalues --    0.17941   0.19073   0.19770   0.19943   0.20980
 Alpha virt. eigenvalues --    0.21886   0.22375   0.23556   0.23914   0.24668
 Alpha virt. eigenvalues --    0.25465   0.25761   0.26570   0.27318   0.27417

 Mulliken atomic charges:
              1
     1  C   -0.279864
     2  N   -0.743785
     3  C    0.799118
     4  O   -0.629041
     5  C    0.121399
     6  C   -0.527017
     7  C   -0.327579
     8  C   -0.324899
     9  C   -0.349949
    10  C   -0.178551
    11  C   -0.182949
    12  C   -0.350789
    13  C   -0.308893
    14  C   -0.329080
    15  C    0.090428
    16  C   -0.509881
    17  N   -0.787476
    18  C    0.767415
    19  C   -0.595541
    20  O   -0.614345
    21  C    0.821022
    22  O   -0.641049
    23  N   -0.804950
    24  C   -0.274759
    25  N   -0.805512
    26  C    0.750932
    27  C   -0.590416
    28  O   -0.594882
    29  H    0.162616
    30  H    0.205619
    31  H    0.171745
    32  H    0.392022
    33  H    0.175019
    34  H    0.173270
    35  H    0.198512
    36  H    0.150114
    37  H    0.208759
    38  H    0.168073
    39  H    0.157657
    40  H    0.195645
    41  H    0.163483
    42  H    0.212529
    43  H    0.168850
    44  H    0.172237
    45  H    0.157495
    46  H    0.147486
    47  H    0.197240
    48  H    0.172786
    49  H    0.188181
    50  H    0.183332
    51  H    0.149910
    52  H    0.225361
    53  H    0.389733
    54  H    0.210491
    55  H    0.208594
    56  H    0.176250
    57  H    0.395719
    58  H    0.165418
    59  H    0.198141
    60  H    0.183619
    61  H    0.382442
    62  H    0.217497
    63  H    0.182677
    64  H    0.192374
 Sum of Mulliken atomic charges =   0.00000

 Dipole moment (field-independent basis, Debye):
    X=             -4.2595    Y=             -4.2826    Z=             -0.4757  Tot=              6.0589
 Quadrupole moment (field-independent basis, Debye-Ang):
   XX=           -187.2824   YY=           -155.5270   ZZ=           -165.3228
   XY=              8.4692   XZ=             11.9600   YZ=              1.0130

 Normal termination of Gaussian 09 at Thu Dec  5 16:46:58 2019.
