 Gaussian 09, Revision A.02,
 Gaussian 09:  EM64L-G09RevA.02 11-Jun-2009

 ---------------------------------
 #SP HF/6-31G* Geom=(ModRedundant)
 ---------------------------------

 ------------
 paramfit run
 ------------
 Symbolic Z-matrix:
 Charge =  0 Multiplicity = 1

                         Standard orientation:
 ---------------------------------------------------------------------
 Center     Atomic      Atomic             Coordinates (Angstroms)
 Number     Number       Type             X           Y           Z
 ---------------------------------------------------------------------
      1          6    20001001       -4.718899    3.228552   -0.490764
      2          7    20001014       -5.163979    1.850685   -0.515941
      3          6    20001002       -4.291225    0.854219   -0.237617
      4          8    20001024       -3.213643    1.057460    0.249470
      5          6    90000001       -4.802697   -0.581930   -0.450358
      6          6    90000002       -5.431548   -0.701699   -1.842495
      7          6    90000002       -3.641717   -1.595976   -0.262112
      8          6    90000002       -2.415121   -1.507431   -1.187994
      9          6    90000002       -1.320562   -0.482877   -0.829016
     10          6    20001004       -0.743880   -0.659275    0.556119
     11          6    20001004        0.380161   -1.272677    0.889327
     12          6    90000002        1.364993   -1.949728   -0.033421
     13          6    90000002        2.634506   -1.127258   -0.318805
     14          6    90000002        3.444948   -0.829382    0.949804
     15          6    90000002        4.835613   -0.163187    0.785844
     16          6    90000002        5.403054    0.080582    2.193693
     17          7    20001014        5.706985   -1.080094    0.063678
     18          6    20001002        6.951271   -0.703172   -0.351940
     19          6    20001001        7.573945   -1.601401   -1.396098
     20          8    20001024        7.514581    0.266197    0.074849
     21          6    20001002        4.670228    1.117523   -0.063363
     22          8    20001024        4.648036    1.050535   -1.262925
     23          7    20001014        4.451695    2.276507    0.594651
     24          6    20001001        4.338762    3.521203   -0.137592
     25          7    20001014       -5.779764   -0.937508    0.589033
     26          6    20001002       -6.949657   -0.266055    0.789464
     27          6    20001001       -7.965829   -0.987742    1.650092
     28          8    20001024       -7.157933    0.821087    0.330241
     29          1    20001035       -3.998026    3.433842   -1.273802
     30          1    20001035       -4.261163    3.446853    0.462937
     31          1    20001035       -5.579632    3.872276   -0.621566
     32          1    20001029       -5.916321    1.625484   -1.123848
     33          1    20001034       -4.730035   -0.422327   -2.613703
     34          1    20001034       -5.750682   -1.726439   -2.007716
     35          1    20001034       -6.287879   -0.048521   -1.926049
     36          1    20001034       -4.084158   -2.578576   -0.410318
     37          1    20001034       -3.318769   -1.561050    0.773631
     38          1    20001034       -1.954777   -2.491138   -1.183091
     39          1    20001034       -2.733686   -1.329177   -2.209813
     40          1    20001034       -1.707724    0.523167   -0.925682
     41          1    20001034       -0.538627   -0.575428   -1.574566
     42          1    20001033       -1.325455   -0.225944    1.353683
     43          1    20001033        0.637074   -1.296368    1.936798
     44          1    20001034        0.893179   -2.184484   -0.979859
     45          1    20001034        1.652192   -2.903759    0.406961
     46          1    20001034        3.232001   -1.680528   -1.038016
     47          1    20001034        2.358871   -0.202898   -0.809124
     48          1    20001034        3.607557   -1.753866    1.499731
     49          1    20001034        2.856964   -0.185127    1.592890
     50          1    20001034        5.577857   -0.878064    2.668060
     51          1    20001034        4.697967    0.625593    2.812720
     52          1    20001034        6.340537    0.615040    2.158779
     53          1    20001029        5.243322   -1.719700   -0.540171
     54          1    20001034        8.644498   -1.463912   -1.387412
     55          1    20001034        7.193673   -1.313214   -2.371529
     56          1    20001034        7.335644   -2.646427   -1.230224
     57          1    20001029        4.712991    2.333897    1.550549
     58          1    20001035        4.046791    4.302400    0.551905
     59          1    20001035        3.583031    3.426628   -0.903458
     60          1    20001035        5.275361    3.795660   -0.612155
     61          1    20001029       -5.754957   -1.884539    0.895735
     62          1    20001034       -8.650755   -0.262253    2.064232
     63          1    20001034       -7.499785   -1.549700    2.451688
     64          1    20001034       -8.528039   -1.680483    1.032166
 ---------------------------------------------------------------------

 SCF Done:  E(RHF) =  -1295.58953040     A.U. after   14 cycles

 The electronic state is 1-A.
 Alpha  occ. eigenvalues --  -20.52816 -20.51943 -20.51676 -20.51139 -15.59370
 Alpha  occ. eigenvalues --  -15.57455 -15.57081 -15.56291 -11.35680 -11.33885
 Alpha  occ. eigenvalues --  -11.33715 -11.33219 -11.29275 -11.28035 -11.24618
 Alpha  occ. eigenvalues --  -11.24425 -11.23954 -11.23057 -11.22981 -11.22696
 Alpha  occ. eigenvalues --  -11.22216 -11.21961 -11.21560 -11.21487 -11.21319
 Alpha  occ. eigenvalues --  -11.20622 -11.20336 -11.19756  -1.40519  -1.38984
 Alpha  occ. eigenvalues --   -1.38957  -1.37676  -1.24842  -1.23097  -1.22171
 Alpha  occ. eigenvalues --   -1.21874  -1.09737  -1.08774  -1.06546  -1.03678
 Alpha  occ. eigenvalues --   -1.00537  -0.99532  -0.98431  -0.94898  -0.94466
 Alpha  occ. eigenvalues --   -0.94195  -0.91720  -0.87050  -0.85189  -0.82637
 Alpha  occ. eigenvalues --   -0.80858  -0.79048  -0.78065  -0.76564  -0.76431
 Alpha  occ. eigenvalues --   -0.71422  -0.71165  -0.70352  -0.68829  -0.67471
 Alpha  occ. eigenvalues --   -0.65985  -0.65329  -0.64565  -0.63975  -0.63391
 Alpha  occ. eigenvalues --   -0.62656  -0.61744  -0.61262  -0.61020  -0.60730
 Alpha  occ. eigenvalues --   -0.60034  -0.59732  -0.58860  -0.58357  -0.58115
 Alpha  occ. eigenvalues --   -0.57565  -0.57225  -0.56925  -0.56004  -0.55740
 Alpha  occ. eigenvalues --   -0.55005  -0.54816  -0.54430  -0.54323  -0.54207
 Alpha  occ. eigenvalues --   -0.52991  -0.52597  -0.52115  -0.52025  -0.51534
 Alpha  occ. eigenvalues --   -0.50750  -0.49457  -0.49301  -0.48196  -0.47675
 Alpha  occ. eigenvalues --   -0.47485  -0.45918  -0.45628  -0.43329  -0.42930
 Alpha  occ. eigenvalues --   -0.42425  -0.41052  -0.40678  -0.38657  -0.38399
 Alpha  occ. eigenvalues --   -0.37834  -0.36046  -0.33016
 Alpha virt. eigenvalues --    0.18570   0.19105   0.19175   0.20091   0.20940
 Alpha virt. eigenvalues --    0.22038   0.22506   0.23748   0.24235   0.25137
 Alpha virt. eigenvalues --    0.25663   0.26145   0.26794   0.27507   0.27651

 Mulliken atomic charges:
              1
     1  C   -0.277177
     2  N   -0.733323
     3  C    0.791693
     4  O   -0.630296
     5  C    0.095967
     6  C   -0.497649
     7  C   -0.317036
     8  C   -0.323055
     9  C   -0.344967
    10  C   -0.171481
    11  C   -0.185904
    12  C   -0.349078
    13  C   -0.308813
    14  C   -0.328673
    15  C    0.090418
    16  C   -0.509726
    17  N   -0.787556
    18  C    0.767434
    19  C   -0.595483
    20  O   -0.614672
    21  C    0.821234
    22  O   -0.640831
    23  N   -0.804909
    24  C   -0.274704
    25  N   -0.809366
    26  C    0.757669
    27  C   -0.589874
    28  O   -0.605493
    29  H    0.160721
    30  H    0.199178
    31  H    0.173038
    32  H    0.404197
    33  H    0.180090
    34  H    0.170414
    35  H    0.182919
    36  H    0.147795
    37  H    0.200536
    38  H    0.164565
    39  H    0.155595
    40  H    0.218826
    41  H    0.155284
    42  H    0.200175
    43  H    0.164942
    44  H    0.173416
    45  H    0.155195
    46  H    0.146373
    47  H    0.198062
    48  H    0.172106
    49  H    0.187928
    50  H    0.182999
    51  H    0.149559
    52  H    0.224913
    53  H    0.389934
    54  H    0.210084
    55  H    0.208683
    56  H    0.176156
    57  H    0.395343
    58  H    0.164825
    59  H    0.198888
    60  H    0.183187
    61  H    0.384864
    62  H    0.217387
    63  H    0.183175
    64  H    0.194300
 Sum of Mulliken atomic charges =   0.00000

 Dipole moment (field-independent basis, Debye):
    X=             -5.4124    Y=             -4.0275    Z=              0.6091  Tot=              6.7739
 Quadrupole moment (field-independent basis, Debye-Ang):
   XX=           -179.5157   YY=           -155.4383   ZZ=           -166.1342
   XY=              6.7649   XZ=              8.1872   YZ=              2.1845

 Normal termination of Gaussian 09 at Thu Dec  5 16:57:16 2019.
